BLANK INCAR GENERATED VIA vasp_gen_wrap 
   1.00000000000000     
     4.896602    0.000000    0.270628
     0.000000    2.831256    0.000000
    -1.891653    0.000000    4.606015
   Li   Co   O 
     2     2     4
Direct
  0.000000  0.500000  0.500000
  0.500000 -0.000000  0.500000
  0.000000 -0.000000  0.000000
  0.500000  0.500000  0.000000
  0.260366  0.000000  0.781095
  0.739634 -0.000000  0.218906
  0.760366  0.500000  0.781095
  0.239634  0.500000  0.218906
 
   56   32   60
 0.61836412704E+03 0.60085160195E+03 0.55171216294E+03 0.47979084087E+03 0.39613789764E+03
 0.31074244929E+03 0.23087396302E+03 0.16130507902E+03 0.10528354804E+03 0.64836891217E+02
 0.40019243012E+02 0.28022639658E+02 0.23420469103E+02 0.21049763526E+02 0.19851959557E+02
 0.19457408370E+02 0.19501398770E+02 0.19706365394E+02 0.19883949314E+02 0.19913409285E+02
 0.19724268196E+02 0.19292193727E+02 0.18640545522E+02 0.17834791823E+02 0.16967945937E+02
 0.16144545105E+02 0.15466880964E+02 0.15021509434E+02 0.14866293879E+02 0.15021509434E+02
 0.15466880964E+02 0.16144545105E+02 0.16967945937E+02 0.17834791823E+02 0.18640545522E+02
 0.19292193727E+02 0.19724268196E+02 0.19913409285E+02 0.19883949314E+02 0.19706365394E+02
 0.19501398770E+02 0.19457408370E+02 0.19851959557E+02 0.21049763526E+02 0.23420469103E+02
 0.28022639658E+02 0.40019243012E+02 0.64836891217E+02 0.10528354804E+03 0.16130507902E+03
 0.23087396302E+03 0.31074244929E+03 0.39613789764E+03 0.47979084087E+03 0.55171216294E+03
 0.60085160195E+03 0.60049423570E+03 0.58357602710E+03 0.53607246006E+03 0.46645148113E+03
 0.38531443263E+03 0.30229715209E+03 0.22450021975E+03 0.15668538594E+03 0.10214551881E+03
 0.62916390116E+02 0.39004017688E+02 0.27547941907E+02 0.23132737112E+02 0.20813246327E+02
 0.19650499252E+02 0.19277900723E+02 0.19338282266E+02 0.19560864119E+02 0.19761705401E+02
 0.19822075975E+02 0.19671683814E+02 0.19285150437E+02 0.18683715396E+02 0.17929607317E+02
 0.17111830116E+02 0.16330938566E+02 0.15685960341E+02 0.15261135006E+02 0.15112927011E+02
 0.15261135006E+02 0.15685960341E+02 0.16330938566E+02 0.17111830116E+02 0.17929607317E+02
 0.18683715396E+02 0.19285150437E+02 0.19671683814E+02 0.19822075975E+02 0.19761705401E+02
 0.19560864119E+02 0.19338282266E+02 0.19277900722E+02 0.19650499252E+02 0.20813246327E+02
 0.23132737112E+02 0.27547941906E+02 0.39004017688E+02 0.62916390116E+02 0.10214551881E+03
 0.15668538594E+03 0.22450021975E+03 0.30229715209E+03 0.38531443263E+03 0.46645148113E+03
 0.53607246006E+03 0.58357602710E+03 0.55042022890E+03 0.53513633266E+03 0.49213460771E+03
 0.42885647497E+03 0.35468550633E+03 0.27830302024E+03 0.20635127038E+03 0.14354759843E+03
 0.93274122599E+02 0.57547038141E+02 0.36209443829E+02 0.26251203518E+02 0.22317067836E+02
 0.20145261240E+02 0.19081902235E+02 0.18770906446E+02 0.18877386351E+02 0.19150462052E+02
 0.19419565342E+02 0.19572756641E+02 0.19541284332E+02 0.19297222364E+02 0.18855265058E+02
 0.18267014370E+02 0.17608092637E+02 0.16965592470E+02 0.16427364230E+02 0.16069715287E+02
 0.15944419728E+02 0.16069715287E+02 0.16427364230E+02 0.16965592470E+02 0.17608092637E+02
 0.18267014370E+02 0.18855265058E+02 0.19297222364E+02 0.19541284332E+02 0.19572756641E+02
 0.19419565342E+02 0.19150462052E+02 0.18877386351E+02 0.18770906446E+02 0.19081902235E+02
 0.20145261240E+02 0.22317067835E+02 0.26251203518E+02 0.36209443829E+02 0.57547038141E+02
 0.93274122599E+02 0.14354759843E+03 0.20635127038E+03 0.27830302024E+03 0.35468550633E+03
 0.42885647497E+03 0.49213460771E+03 0.53513633266E+03 0.47731509697E+03 0.46432552797E+03
 0.42765622254E+03 0.37334428764E+03 0.30911714610E+03 0.24236382312E+03 0.17909172752E+03
 0.12390084424E+03 0.80187039359E+02 0.49813673482E+02 0.32312140053E+02 0.24457663468E+02
 0.21106505786E+02 0.19160991418E+02 0.18244945616E+02 0.18023527385E+02 0.18197911692E+02
 0.18549127982E+02 0.18929266865E+02 0.19239750142E+02 0.19416917241E+02 0.19429899679E+02
 0.19281558985E+02 0.19002839096E+02 0.18642959342E+02 0.18262250988E+02 0.17926276604E+02
 0.17695806368E+02 0.17613836112E+02 0.17695806368E+02 0.17926276604E+02 0.18262250988E+02
 0.18642959342E+02 0.19002839096E+02 0.19281558985E+02 0.19429899679E+02 0.19416917241E+02
 0.19239750142E+02 0.18929266865E+02 0.18549127982E+02 0.18197911692E+02 0.18023527385E+02
 0.18244945616E+02 0.19160991418E+02 0.21106505785E+02 0.24457663468E+02 0.32312140053E+02
 0.49813673482E+02 0.80187039359E+02 0.12390084424E+03 0.17909172752E+03 0.24236382312E+03
 0.30911714610E+03 0.37334428764E+03 0.42765622254E+03 0.46432552797E+03 0.39256354943E+03
 0.38207898080E+03 0.35235283277E+03 0.30796908168E+03 0.25495008984E+03 0.19934848579E+03
 0.14646533128E+03 0.10064168104E+03 0.65071107352E+02 0.41233172840E+02 0.28199024872E+02
 0.22536562406E+02 0.19692772125E+02 0.18023622183E+02 0.17278975314E+02 0.17159271811E+02
 0.17414154565E+02 0.17867387615E+02 0.18403488766E+02 0.18945594168E+02 0.19440307806E+02
 0.19853144920E+02 0.20166882487E+02 0.20376887922E+02 0.20487867068E+02 0.20516490812E+02
 0.20493774339E+02 0.20458443879E+02 0.20442556137E+02 0.20458443879E+02 0.20493774339E+02
 0.20516490812E+02 0.20487867068E+02 0.20376887922E+02 0.20166882487E+02 0.19853144920E+02
 0.19440307806E+02 0.18945594168E+02 0.18403488766E+02 0.17867387615E+02 0.17414154565E+02
 0.17159271811E+02 0.17278975314E+02 0.18023622183E+02 0.19692772125E+02 0.22536562406E+02
 0.28199024872E+02 0.41233172840E+02 0.65071107352E+02 0.10064168104E+03 0.14646533128E+03
 0.19934848579E+03 0.25495008984E+03 0.30796908168E+03 0.35235283277E+03 0.38207898080E+03
 0.30635764221E+03 0.29823974102E+03 0.27512397790E+03 0.24035184085E+03 0.19848228720E+03
 0.15438114800E+03 0.11261019159E+03 0.77033318226E+02 0.50335494519E+02 0.33365497376E+02
 0.24660434817E+02 0.20704566400E+02 0.18287821475E+02 0.16910370689E+02 0.16335659151E+02
 0.16314811993E+02 0.16656716250E+02 0.17237818914E+02 0.17985217834E+02 0.18852615819E+02
 0.19800681185E+02 0.20785766355E+02 0.21754281997E+02 0.22642795979E+02 0.23390937789E+02
 0.24033826058E+02 0.24615401849E+02 0.25045187603E+02 0.25205413343E+02 0.25045187603E+02
 0.24615401849E+02 0.24033826058E+02 0.23390937789E+02 0.22642795979E+02 0.21754281997E+02
 0.20785766354E+02 0.19800681185E+02 0.18852615819E+02 0.17985217834E+02 0.17237818914E+02
 0.16656716250E+02 0.16314811993E+02 0.16335659151E+02 0.16910370689E+02 0.18287821475E+02
 0.20704566400E+02 0.24660434817E+02 0.33365497376E+02 0.50335494519E+02 0.77033318226E+02
 0.11261019159E+03 0.15438114800E+03 0.19848228720E+03 0.24035184085E+03 0.27512397790E+03
 0.29823974102E+03 0.22603407328E+03 0.21998223079E+03 0.20270323766E+03 0.17661423982E+03
 0.14515259380E+03 0.11218345909E+03 0.81468223277E+02 0.56137338214E+02 0.38079603674E+02
 0.27366745020E+02 0.22073727683E+02 0.19069225234E+02 0.17083328034E+02 0.15979811494E+02
 0.15553394462E+02 0.15619738865E+02 0.16055916276E+02 0.16800238304E+02 0.17831878034E+02
 0.19141004817E+02 0.20698200102E+02 0.22431574665E+02 0.24226176449E+02 0.26226958616E+02
 0.28717496121E+02 0.31529875929E+02 0.34170032408E+02 0.36056637590E+02 0.36741142706E+02
 0.36056637590E+02 0.34170032408E+02 0.31529875929E+02 0.28717496121E+02 0.26226958616E+02
 0.24226176449E+02 0.22431574665E+02 0.20698200102E+02 0.19141004817E+02 0.17831878034E+02
 0.16800238304E+02 0.16055916276E+02 0.15619738865E+02 0.15553394462E+02 0.15979811494E+02
 0.17083328034E+02 0.19069225234E+02 0.22073727683E+02 0.27366745020E+02 0.38079603674E+02
 0.56137338214E+02 0.81468223277E+02 0.11218345909E+03 0.14515259380E+03 0.17661423982E+03
 0.20270323766E+03 0.21998223079E+03 0.15638074052E+03 0.15208660294E+03 0.13983424842E+03
 0.12139198881E+03 0.99346421012E+02 0.76671272717E+02 0.56229168628E+02 0.40207515515E+02
 0.29550579978E+02 0.23595260247E+02 0.20219923642E+02 0.17800965487E+02 0.16218826648E+02
 0.15348362611E+02 0.15039489375E+02 0.15182224946E+02 0.15728595765E+02 0.16686351327E+02
 0.18092438247E+02 0.19969535371E+02 0.22275654993E+02 0.24973940787E+02 0.28774406896E+02
 0.34234439508E+02 0.41071563818E+02 0.48345546963E+02 0.54803855103E+02 0.59247585117E+02
 0.60830135786E+02 0.59247585117E+02 0.54803855102E+02 0.48345546963E+02 0.41071563818E+02
 0.34234439508E+02 0.28774406896E+02 0.24973940787E+02 0.22275654993E+02 0.19969535371E+02
 0.18092438247E+02 0.16686351327E+02 0.15728595765E+02 0.15182224946E+02 0.15039489375E+02
 0.15348362611E+02 0.16218826648E+02 0.17800965487E+02 0.20219923642E+02 0.23595260247E+02
 0.29550579978E+02 0.40207515515E+02 0.56229168628E+02 0.76671272717E+02 0.99346421012E+02
 0.12139198881E+03 0.13983424842E+03 0.15208660294E+03 0.10065531599E+03 0.97851305985E+02
 0.89892335718E+02 0.78055993821E+02 0.64212311262E+02 0.50466999041E+02 0.38707416474E+02
 0.30108607918E+02 0.24732547890E+02 0.21423468197E+02 0.18876528280E+02 0.17001298437E+02
 0.15765837870E+02 0.15079238104E+02 0.14860683209E+02 0.15079238104E+02 0.15765837870E+02
 0.17001298437E+02 0.18876528280E+02 0.21423468197E+02 0.24732547890E+02 0.30108607918E+02
 0.38707416474E+02 0.50466999041E+02 0.64212311262E+02 0.78055993821E+02 0.89892335718E+02
 0.97851305985E+02 0.10065531599E+03 0.97851305985E+02 0.89892335718E+02 0.78055993821E+02
 0.64212311262E+02 0.50466999041E+02 0.38707416474E+02 0.30108607918E+02 0.24732547890E+02
 0.21423468197E+02 0.18876528280E+02 0.17001298437E+02 0.15765837870E+02 0.15079238104E+02
 0.14860683210E+02 0.15079238104E+02 0.15765837870E+02 0.17001298437E+02 0.18876528280E+02
 0.21423468197E+02 0.24732547890E+02 0.30108607918E+02 0.38707416474E+02 0.50466999041E+02
 0.64212311262E+02 0.78055993821E+02 0.89892335718E+02 0.97851305985E+02 0.60830135786E+02
 0.59247585117E+02 0.54803855102E+02 0.48345546963E+02 0.41071563818E+02 0.34234439508E+02
 0.28774406896E+02 0.24973940787E+02 0.22275654993E+02 0.19969535371E+02 0.18092438247E+02
 0.16686351327E+02 0.15728595765E+02 0.15182224946E+02 0.15039489375E+02 0.15348362611E+02
 0.16218826648E+02 0.17800965487E+02 0.20219923642E+02 0.23595260247E+02 0.29550579978E+02
 0.40207515515E+02 0.56229168628E+02 0.76671272717E+02 0.99346421012E+02 0.12139198881E+03
 0.13983424842E+03 0.15208660294E+03 0.15638074052E+03 0.15208660294E+03 0.13983424842E+03
 0.12139198881E+03 0.99346421012E+02 0.76671272717E+02 0.56229168628E+02 0.40207515515E+02
 0.29550579978E+02 0.23595260247E+02 0.20219923642E+02 0.17800965487E+02 0.16218826648E+02
 0.15348362611E+02 0.15039489375E+02 0.15182224946E+02 0.15728595765E+02 0.16686351327E+02
 0.18092438247E+02 0.19969535371E+02 0.22275654993E+02 0.24973940787E+02 0.28774406896E+02
 0.34234439508E+02 0.41071563818E+02 0.48345546963E+02 0.54803855103E+02 0.59247585117E+02
 0.36741142706E+02 0.36056637590E+02 0.34170032408E+02 0.31529875929E+02 0.28717496121E+02
 0.26226958616E+02 0.24226176449E+02 0.22431574665E+02 0.20698200102E+02 0.19141004817E+02
 0.17831878034E+02 0.16800238304E+02 0.16055916276E+02 0.15619738865E+02 0.15553394462E+02
 0.15979811494E+02 0.17083328034E+02 0.19069225234E+02 0.22073727683E+02 0.27366745020E+02
 0.38079603674E+02 0.56137338214E+02 0.81468223277E+02 0.11218345909E+03 0.14515259380E+03
 0.17661423982E+03 0.20270323766E+03 0.21998223079E+03 0.22603407328E+03 0.21998223079E+03
 0.20270323766E+03 0.17661423982E+03 0.14515259380E+03 0.11218345909E+03 0.81468223277E+02
 0.56137338214E+02 0.38079603674E+02 0.27366745020E+02 0.22073727683E+02 0.19069225234E+02
 0.17083328034E+02 0.15979811494E+02 0.15553394462E+02 0.15619738865E+02 0.16055916276E+02
 0.16800238304E+02 0.17831878035E+02 0.19141004817E+02 0.20698200102E+02 0.22431574665E+02
 0.24226176449E+02 0.26226958616E+02 0.28717496121E+02 0.31529875929E+02 0.34170032408E+02
 0.36056637590E+02 0.25205413343E+02 0.25045187603E+02 0.24615401849E+02 0.24033826058E+02
 0.23390937789E+02 0.22642795979E+02 0.21754281997E+02 0.20785766354E+02 0.19800681185E+02
 0.18852615819E+02 0.17985217834E+02 0.17237818914E+02 0.16656716250E+02 0.16314811993E+02
 0.16335659151E+02 0.16910370689E+02 0.18287821475E+02 0.20704566400E+02 0.24660434817E+02
 0.33365497376E+02 0.50335494519E+02 0.77033318226E+02 0.11261019159E+03 0.15438114800E+03
 0.19848228720E+03 0.24035184085E+03 0.27512397790E+03 0.29823974102E+03 0.30635764221E+03
 0.29823974102E+03 0.27512397790E+03 0.24035184085E+03 0.19848228720E+03 0.15438114800E+03
 0.11261019159E+03 0.77033318226E+02 0.50335494519E+02 0.33365497376E+02 0.24660434817E+02
 0.20704566400E+02 0.18287821475E+02 0.16910370689E+02 0.16335659151E+02 0.16314811993E+02
 0.16656716250E+02 0.17237818914E+02 0.17985217834E+02 0.18852615819E+02 0.19800681185E+02
 0.20785766355E+02 0.21754281997E+02 0.22642795979E+02 0.23390937789E+02 0.24033826058E+02
 0.24615401849E+02 0.25045187603E+02 0.20442556137E+02 0.20458443879E+02 0.20493774339E+02
 0.20516490812E+02 0.20487867068E+02 0.20376887922E+02 0.20166882487E+02 0.19853144920E+02
 0.19440307806E+02 0.18945594168E+02 0.18403488766E+02 0.17867387615E+02 0.17414154565E+02
 0.17159271811E+02 0.17278975314E+02 0.18023622183E+02 0.19692772125E+02 0.22536562406E+02
 0.28199024872E+02 0.41233172840E+02 0.65071107352E+02 0.10064168104E+03 0.14646533128E+03
 0.19934848579E+03 0.25495008984E+03 0.30796908168E+03 0.35235283277E+03 0.38207898080E+03
 0.39256354943E+03 0.38207898080E+03 0.35235283277E+03 0.30796908168E+03 0.25495008984E+03
 0.19934848579E+03 0.14646533128E+03 0.10064168104E+03 0.65071107352E+02 0.41233172840E+02
 0.28199024872E+02 0.22536562406E+02 0.19692772125E+02 0.18023622183E+02 0.17278975314E+02
 0.17159271811E+02 0.17414154565E+02 0.17867387615E+02 0.18403488766E+02 0.18945594168E+02
 0.19440307806E+02 0.19853144920E+02 0.20166882487E+02 0.20376887922E+02 0.20487867068E+02
 0.20516490812E+02 0.20493774339E+02 0.20458443879E+02 0.17613836112E+02 0.17695806368E+02
 0.17926276604E+02 0.18262250988E+02 0.18642959342E+02 0.19002839096E+02 0.19281558985E+02
 0.19429899679E+02 0.19416917241E+02 0.19239750142E+02 0.18929266865E+02 0.18549127982E+02
 0.18197911692E+02 0.18023527385E+02 0.18244945616E+02 0.19160991418E+02 0.21106505785E+02
 0.24457663468E+02 0.32312140053E+02 0.49813673482E+02 0.80187039359E+02 0.12390084424E+03
 0.17909172752E+03 0.24236382312E+03 0.30911714610E+03 0.37334428764E+03 0.42765622254E+03
 0.46432552797E+03 0.47731509697E+03 0.46432552797E+03 0.42765622254E+03 0.37334428764E+03
 0.30911714610E+03 0.24236382312E+03 0.17909172752E+03 0.12390084424E+03 0.80187039359E+02
 0.49813673482E+02 0.32312140053E+02 0.24457663468E+02 0.21106505786E+02 0.19160991418E+02
 0.18244945616E+02 0.18023527385E+02 0.18197911692E+02 0.18549127982E+02 0.18929266865E+02
 0.19239750142E+02 0.19416917241E+02 0.19429899679E+02 0.19281558985E+02 0.19002839096E+02
 0.18642959342E+02 0.18262250988E+02 0.17926276604E+02 0.17695806368E+02 0.15944419728E+02
 0.16069715287E+02 0.16427364230E+02 0.16965592470E+02 0.17608092637E+02 0.18267014370E+02
 0.18855265058E+02 0.19297222364E+02 0.19541284332E+02 0.19572756641E+02 0.19419565342E+02
 0.19150462052E+02 0.18877386351E+02 0.18770906446E+02 0.19081902235E+02 0.20145261240E+02
 0.22317067835E+02 0.26251203518E+02 0.36209443829E+02 0.57547038141E+02 0.93274122599E+02
 0.14354759843E+03 0.20635127038E+03 0.27830302024E+03 0.35468550633E+03 0.42885647497E+03
 0.49213460771E+03 0.53513633266E+03 0.55042022890E+03 0.53513633266E+03 0.49213460771E+03
 0.42885647497E+03 0.35468550633E+03 0.27830302024E+03 0.20635127038E+03 0.14354759843E+03
 0.93274122599E+02 0.57547038141E+02 0.36209443829E+02 0.26251203518E+02 0.22317067836E+02
 0.20145261240E+02 0.19081902235E+02 0.18770906446E+02 0.18877386351E+02 0.19150462052E+02
 0.19419565342E+02 0.19572756642E+02 0.19541284332E+02 0.19297222364E+02 0.18855265058E+02
 0.18267014370E+02 0.17608092637E+02 0.16965592470E+02 0.16427364230E+02 0.16069715287E+02
 0.15112927011E+02 0.15261135006E+02 0.15685960341E+02 0.16330938566E+02 0.17111830116E+02
 0.17929607317E+02 0.18683715396E+02 0.19285150437E+02 0.19671683814E+02 0.19822075975E+02
 0.19761705401E+02 0.19560864119E+02 0.19338282266E+02 0.19277900722E+02 0.19650499252E+02
 0.20813246327E+02 0.23132737112E+02 0.27547941906E+02 0.39004017688E+02 0.62916390116E+02
 0.10214551881E+03 0.15668538594E+03 0.22450021975E+03 0.30229715209E+03 0.38531443263E+03
 0.46645148113E+03 0.53607246006E+03 0.58357602710E+03 0.60049423570E+03 0.58357602710E+03
 0.53607246006E+03 0.46645148113E+03 0.38531443263E+03 0.30229715209E+03 0.22450021975E+03
 0.15668538594E+03 0.10214551881E+03 0.62916390116E+02 0.39004017688E+02 0.27547941907E+02
 0.23132737112E+02 0.20813246327E+02 0.19650499252E+02 0.19277900723E+02 0.19338282266E+02
 0.19560864119E+02 0.19761705401E+02 0.19822075975E+02 0.19671683814E+02 0.19285150437E+02
 0.18683715396E+02 0.17929607317E+02 0.17111830116E+02 0.16330938566E+02 0.15685960341E+02
 0.15261135006E+02 0.14866293879E+02 0.15021509434E+02 0.15466880964E+02 0.16144545105E+02
 0.16967945937E+02 0.17834791823E+02 0.18640545522E+02 0.19292193727E+02 0.19724268196E+02
 0.19913409285E+02 0.19883949314E+02 0.19706365394E+02 0.19501398770E+02 0.19457408370E+02
 0.19851959557E+02 0.21049763526E+02 0.23420469103E+02 0.28022639658E+02 0.40019243012E+02
 0.64836891217E+02 0.10528354804E+03 0.16130507902E+03 0.23087396302E+03 0.31074244929E+03
 0.39613789764E+03 0.47979084087E+03 0.55171216294E+03 0.60085160195E+03 0.61836412704E+03
 0.60085160195E+03 0.55171216294E+03 0.47979084087E+03 0.39613789764E+03 0.31074244929E+03
 0.23087396302E+03 0.16130507902E+03 0.10528354804E+03 0.64836891217E+02 0.40019243012E+02
 0.28022639658E+02 0.23420469103E+02 0.21049763526E+02 0.19851959557E+02 0.19457408370E+02
 0.19501398770E+02 0.19706365394E+02 0.19883949314E+02 0.19913409285E+02 0.19724268196E+02
 0.19292193727E+02 0.18640545522E+02 0.17834791823E+02 0.16967945937E+02 0.16144545105E+02
 0.15466880964E+02 0.15021509434E+02 0.15112927011E+02 0.15261135006E+02 0.15685960341E+02
 0.16330938566E+02 0.17111830116E+02 0.17929607317E+02 0.18683715396E+02 0.19285150437E+02
 0.19671683814E+02 0.19822075975E+02 0.19761705401E+02 0.19560864119E+02 0.19338282266E+02
 0.19277900722E+02 0.19650499252E+02 0.20813246327E+02 0.23132737112E+02 0.27547941906E+02
 0.39004017688E+02 0.62916390116E+02 0.10214551881E+03 0.15668538594E+03 0.22450021975E+03
 0.30229715209E+03 0.38531443263E+03 0.46645148113E+03 0.53607246006E+03 0.58357602710E+03
 0.60049423570E+03 0.58357602710E+03 0.53607246006E+03 0.46645148113E+03 0.38531443263E+03
 0.30229715209E+03 0.22450021975E+03 0.15668538594E+03 0.10214551881E+03 0.62916390116E+02
 0.39004017688E+02 0.27547941907E+02 0.23132737112E+02 0.20813246327E+02 0.19650499252E+02
 0.19277900723E+02 0.19338282266E+02 0.19560864119E+02 0.19761705401E+02 0.19822075975E+02
 0.19671683814E+02 0.19285150437E+02 0.18683715396E+02 0.17929607317E+02 0.17111830116E+02
 0.16330938566E+02 0.15685960341E+02 0.15261135006E+02 0.15944419728E+02 0.16069715287E+02
 0.16427364230E+02 0.16965592470E+02 0.17608092637E+02 0.18267014370E+02 0.18855265058E+02
 0.19297222364E+02 0.19541284332E+02 0.19572756641E+02 0.19419565342E+02 0.19150462052E+02
 0.18877386351E+02 0.18770906446E+02 0.19081902235E+02 0.20145261240E+02 0.22317067835E+02
 0.26251203518E+02 0.36209443829E+02 0.57547038141E+02 0.93274122599E+02 0.14354759843E+03
 0.20635127038E+03 0.27830302024E+03 0.35468550633E+03 0.42885647497E+03 0.49213460771E+03
 0.53513633266E+03 0.55042022890E+03 0.53513633266E+03 0.49213460771E+03 0.42885647497E+03
 0.35468550633E+03 0.27830302024E+03 0.20635127038E+03 0.14354759843E+03 0.93274122599E+02
 0.57547038141E+02 0.36209443829E+02 0.26251203518E+02 0.22317067836E+02 0.20145261240E+02
 0.19081902235E+02 0.18770906446E+02 0.18877386351E+02 0.19150462052E+02 0.19419565342E+02
 0.19572756642E+02 0.19541284332E+02 0.19297222364E+02 0.18855265058E+02 0.18267014370E+02
 0.17608092637E+02 0.16965592470E+02 0.16427364230E+02 0.16069715287E+02 0.17613836112E+02
 0.17695806368E+02 0.17926276604E+02 0.18262250988E+02 0.18642959342E+02 0.19002839096E+02
 0.19281558985E+02 0.19429899679E+02 0.19416917241E+02 0.19239750142E+02 0.18929266865E+02
 0.18549127982E+02 0.18197911692E+02 0.18023527385E+02 0.18244945616E+02 0.19160991418E+02
 0.21106505785E+02 0.24457663468E+02 0.32312140053E+02 0.49813673482E+02 0.80187039359E+02
 0.12390084424E+03 0.17909172752E+03 0.24236382312E+03 0.30911714610E+03 0.37334428764E+03
 0.42765622254E+03 0.46432552797E+03 0.47731509697E+03 0.46432552797E+03 0.42765622254E+03
 0.37334428764E+03 0.30911714610E+03 0.24236382312E+03 0.17909172752E+03 0.12390084424E+03
 0.80187039359E+02 0.49813673482E+02 0.32312140053E+02 0.24457663468E+02 0.21106505786E+02
 0.19160991418E+02 0.18244945616E+02 0.18023527385E+02 0.18197911692E+02 0.18549127982E+02
 0.18929266865E+02 0.19239750142E+02 0.19416917241E+02 0.19429899679E+02 0.19281558985E+02
 0.19002839096E+02 0.18642959342E+02 0.18262250988E+02 0.17926276604E+02 0.17695806368E+02
 0.20442556137E+02 0.20458443879E+02 0.20493774339E+02 0.20516490812E+02 0.20487867068E+02
 0.20376887922E+02 0.20166882487E+02 0.19853144920E+02 0.19440307806E+02 0.18945594168E+02
 0.18403488766E+02 0.17867387615E+02 0.17414154565E+02 0.17159271811E+02 0.17278975314E+02
 0.18023622183E+02 0.19692772125E+02 0.22536562406E+02 0.28199024872E+02 0.41233172840E+02
 0.65071107352E+02 0.10064168104E+03 0.14646533128E+03 0.19934848579E+03 0.25495008984E+03
 0.30796908168E+03 0.35235283277E+03 0.38207898080E+03 0.39256354943E+03 0.38207898080E+03
 0.35235283277E+03 0.30796908168E+03 0.25495008984E+03 0.19934848579E+03 0.14646533128E+03
 0.10064168104E+03 0.65071107352E+02 0.41233172840E+02 0.28199024872E+02 0.22536562406E+02
 0.19692772125E+02 0.18023622183E+02 0.17278975314E+02 0.17159271811E+02 0.17414154565E+02
 0.17867387615E+02 0.18403488766E+02 0.18945594168E+02 0.19440307806E+02 0.19853144920E+02
 0.20166882487E+02 0.20376887922E+02 0.20487867068E+02 0.20516490812E+02 0.20493774339E+02
 0.20458443879E+02 0.25205413343E+02 0.25045187603E+02 0.24615401849E+02 0.24033826058E+02
 0.23390937789E+02 0.22642795979E+02 0.21754281997E+02 0.20785766354E+02 0.19800681185E+02
 0.18852615819E+02 0.17985217834E+02 0.17237818914E+02 0.16656716250E+02 0.16314811993E+02
 0.16335659151E+02 0.16910370689E+02 0.18287821475E+02 0.20704566400E+02 0.24660434817E+02
 0.33365497376E+02 0.50335494519E+02 0.77033318226E+02 0.11261019159E+03 0.15438114800E+03
 0.19848228720E+03 0.24035184085E+03 0.27512397790E+03 0.29823974102E+03 0.30635764221E+03
 0.29823974102E+03 0.27512397790E+03 0.24035184085E+03 0.19848228720E+03 0.15438114800E+03
 0.11261019159E+03 0.77033318226E+02 0.50335494519E+02 0.33365497376E+02 0.24660434817E+02
 0.20704566400E+02 0.18287821475E+02 0.16910370689E+02 0.16335659151E+02 0.16314811993E+02
 0.16656716250E+02 0.17237818914E+02 0.17985217834E+02 0.18852615819E+02 0.19800681185E+02
 0.20785766355E+02 0.21754281997E+02 0.22642795979E+02 0.23390937789E+02 0.24033826058E+02
 0.24615401849E+02 0.25045187603E+02 0.36741142706E+02 0.36056637590E+02 0.34170032408E+02
 0.31529875929E+02 0.28717496121E+02 0.26226958616E+02 0.24226176449E+02 0.22431574665E+02
 0.20698200102E+02 0.19141004817E+02 0.17831878034E+02 0.16800238304E+02 0.16055916276E+02
 0.15619738865E+02 0.15553394462E+02 0.15979811494E+02 0.17083328034E+02 0.19069225234E+02
 0.22073727683E+02 0.27366745020E+02 0.38079603674E+02 0.56137338214E+02 0.81468223277E+02
 0.11218345909E+03 0.14515259380E+03 0.17661423982E+03 0.20270323766E+03 0.21998223079E+03
 0.22603407328E+03 0.21998223079E+03 0.20270323766E+03 0.17661423982E+03 0.14515259380E+03
 0.11218345909E+03 0.81468223277E+02 0.56137338214E+02 0.38079603674E+02 0.27366745020E+02
 0.22073727683E+02 0.19069225234E+02 0.17083328034E+02 0.15979811494E+02 0.15553394462E+02
 0.15619738865E+02 0.16055916276E+02 0.16800238304E+02 0.17831878035E+02 0.19141004817E+02
 0.20698200102E+02 0.22431574665E+02 0.24226176449E+02 0.26226958616E+02 0.28717496121E+02
 0.31529875929E+02 0.34170032408E+02 0.36056637590E+02 0.60830135786E+02 0.59247585117E+02
 0.54803855102E+02 0.48345546963E+02 0.41071563818E+02 0.34234439508E+02 0.28774406896E+02
 0.24973940787E+02 0.22275654993E+02 0.19969535371E+02 0.18092438247E+02 0.16686351327E+02
 0.15728595765E+02 0.15182224946E+02 0.15039489375E+02 0.15348362611E+02 0.16218826648E+02
 0.17800965487E+02 0.20219923642E+02 0.23595260247E+02 0.29550579978E+02 0.40207515515E+02
 0.56229168628E+02 0.76671272717E+02 0.99346421012E+02 0.12139198881E+03 0.13983424842E+03
 0.15208660294E+03 0.15638074052E+03 0.15208660294E+03 0.13983424842E+03 0.12139198881E+03
 0.99346421012E+02 0.76671272717E+02 0.56229168628E+02 0.40207515515E+02 0.29550579978E+02
 0.23595260247E+02 0.20219923642E+02 0.17800965487E+02 0.16218826648E+02 0.15348362611E+02
 0.15039489375E+02 0.15182224946E+02 0.15728595765E+02 0.16686351327E+02 0.18092438247E+02
 0.19969535371E+02 0.22275654993E+02 0.24973940787E+02 0.28774406896E+02 0.34234439508E+02
 0.41071563818E+02 0.48345546963E+02 0.54803855103E+02 0.59247585117E+02 0.10065531599E+03
 0.97851305985E+02 0.89892335718E+02 0.78055993821E+02 0.64212311262E+02 0.50466999041E+02
 0.38707416474E+02 0.30108607918E+02 0.24732547890E+02 0.21423468197E+02 0.18876528280E+02
 0.17001298437E+02 0.15765837870E+02 0.15079238104E+02 0.14860683209E+02 0.15079238104E+02
 0.15765837870E+02 0.17001298437E+02 0.18876528280E+02 0.21423468197E+02 0.24732547890E+02
 0.30108607918E+02 0.38707416474E+02 0.50466999041E+02 0.64212311262E+02 0.78055993821E+02
 0.89892335718E+02 0.97851305985E+02 0.10065531599E+03 0.97851305985E+02 0.89892335718E+02
 0.78055993821E+02 0.64212311262E+02 0.50466999041E+02 0.38707416474E+02 0.30108607918E+02
 0.24732547890E+02 0.21423468197E+02 0.18876528280E+02 0.17001298437E+02 0.15765837870E+02
 0.15079238104E+02 0.14860683210E+02 0.15079238104E+02 0.15765837870E+02 0.17001298437E+02
 0.18876528280E+02 0.21423468197E+02 0.24732547890E+02 0.30108607918E+02 0.38707416474E+02
 0.50466999041E+02 0.64212311262E+02 0.78055993821E+02 0.89892335718E+02 0.97851305985E+02
 0.15638074052E+03 0.15208660294E+03 0.13983424842E+03 0.12139198881E+03 0.99346421012E+02
 0.76671272717E+02 0.56229168628E+02 0.40207515515E+02 0.29550579978E+02 0.23595260247E+02
 0.20219923642E+02 0.17800965487E+02 0.16218826648E+02 0.15348362611E+02 0.15039489375E+02
 0.15182224946E+02 0.15728595765E+02 0.16686351327E+02 0.18092438247E+02 0.19969535371E+02
 0.22275654993E+02 0.24973940787E+02 0.28774406896E+02 0.34234439508E+02 0.41071563818E+02
 0.48345546963E+02 0.54803855103E+02 0.59247585117E+02 0.60830135786E+02 0.59247585117E+02
 0.54803855102E+02 0.48345546963E+02 0.41071563818E+02 0.34234439508E+02 0.28774406896E+02
 0.24973940787E+02 0.22275654993E+02 0.19969535371E+02 0.18092438247E+02 0.16686351327E+02
 0.15728595765E+02 0.15182224946E+02 0.15039489375E+02 0.15348362611E+02 0.16218826648E+02
 0.17800965487E+02 0.20219923642E+02 0.23595260247E+02 0.29550579978E+02 0.40207515515E+02
 0.56229168628E+02 0.76671272717E+02 0.99346421012E+02 0.12139198881E+03 0.13983424842E+03
 0.15208660294E+03 0.22603407328E+03 0.21998223079E+03 0.20270323766E+03 0.17661423982E+03
 0.14515259380E+03 0.11218345909E+03 0.81468223277E+02 0.56137338214E+02 0.38079603674E+02
 0.27366745020E+02 0.22073727683E+02 0.19069225234E+02 0.17083328034E+02 0.15979811494E+02
 0.15553394462E+02 0.15619738865E+02 0.16055916276E+02 0.16800238304E+02 0.17831878034E+02
 0.19141004817E+02 0.20698200102E+02 0.22431574665E+02 0.24226176449E+02 0.26226958616E+02
 0.28717496121E+02 0.31529875929E+02 0.34170032408E+02 0.36056637590E+02 0.36741142706E+02
 0.36056637590E+02 0.34170032408E+02 0.31529875929E+02 0.28717496121E+02 0.26226958616E+02
 0.24226176449E+02 0.22431574665E+02 0.20698200102E+02 0.19141004817E+02 0.17831878034E+02
 0.16800238304E+02 0.16055916276E+02 0.15619738865E+02 0.15553394462E+02 0.15979811494E+02
 0.17083328034E+02 0.19069225234E+02 0.22073727683E+02 0.27366745020E+02 0.38079603674E+02
 0.56137338214E+02 0.81468223277E+02 0.11218345909E+03 0.14515259380E+03 0.17661423982E+03
 0.20270323766E+03 0.21998223079E+03 0.30635764221E+03 0.29823974102E+03 0.27512397790E+03
 0.24035184085E+03 0.19848228720E+03 0.15438114800E+03 0.11261019159E+03 0.77033318226E+02
 0.50335494519E+02 0.33365497376E+02 0.24660434817E+02 0.20704566400E+02 0.18287821475E+02
 0.16910370689E+02 0.16335659151E+02 0.16314811993E+02 0.16656716250E+02 0.17237818914E+02
 0.17985217834E+02 0.18852615819E+02 0.19800681185E+02 0.20785766355E+02 0.21754281997E+02
 0.22642795979E+02 0.23390937789E+02 0.24033826058E+02 0.24615401849E+02 0.25045187603E+02
 0.25205413343E+02 0.25045187603E+02 0.24615401849E+02 0.24033826058E+02 0.23390937789E+02
 0.22642795979E+02 0.21754281997E+02 0.20785766354E+02 0.19800681185E+02 0.18852615819E+02
 0.17985217834E+02 0.17237818914E+02 0.16656716250E+02 0.16314811993E+02 0.16335659151E+02
 0.16910370689E+02 0.18287821475E+02 0.20704566400E+02 0.24660434817E+02 0.33365497376E+02
 0.50335494519E+02 0.77033318226E+02 0.11261019159E+03 0.15438114800E+03 0.19848228720E+03
 0.24035184085E+03 0.27512397790E+03 0.29823974102E+03 0.39256354943E+03 0.38207898080E+03
 0.35235283277E+03 0.30796908168E+03 0.25495008984E+03 0.19934848579E+03 0.14646533128E+03
 0.10064168104E+03 0.65071107352E+02 0.41233172840E+02 0.28199024872E+02 0.22536562406E+02
 0.19692772125E+02 0.18023622183E+02 0.17278975314E+02 0.17159271811E+02 0.17414154565E+02
 0.17867387615E+02 0.18403488766E+02 0.18945594168E+02 0.19440307806E+02 0.19853144920E+02
 0.20166882487E+02 0.20376887922E+02 0.20487867068E+02 0.20516490812E+02 0.20493774339E+02
 0.20458443879E+02 0.20442556137E+02 0.20458443879E+02 0.20493774339E+02 0.20516490812E+02
 0.20487867068E+02 0.20376887922E+02 0.20166882487E+02 0.19853144920E+02 0.19440307806E+02
 0.18945594168E+02 0.18403488766E+02 0.17867387615E+02 0.17414154565E+02 0.17159271811E+02
 0.17278975314E+02 0.18023622183E+02 0.19692772125E+02 0.22536562406E+02 0.28199024872E+02
 0.41233172840E+02 0.65071107352E+02 0.10064168104E+03 0.14646533128E+03 0.19934848579E+03