 vasp.5.4.4.18Apr17-6-g9f103f2a35 (build Aug 30 2018 16:20:14) complex          
  
 executed on     Iridis4-IntelMPI date 2021.11.18  17:27:51
 running on   80 total cores
 distrk:  each k-point on   80 cores,    1 groups
 distr:  one band on NCORES_PER_BAND=   8 cores,   10 groups


--------------------------------------------------------------------------------------------------------


 INCAR:
 POTCAR:    PAW_PBE Co 02Aug2007                  
 POTCAR:    PAW_PBE O 08Apr2002                   
 POTCAR:    PAW_PBE Co 02Aug2007                  
   VRHFIN =Co: d8 s1                                                            
   LEXCH  = PE                                                                  
   EATOM  =   813.3670 eV,   59.7808 Ry                                         
                                                                                
   TITEL  = PAW_PBE Co 02Aug2007                                                
   LULTRA =        F    use ultrasoft PP ?                                      
   IUNSCR =        1    unscreen: 0-lin 1-nonlin 2-no                           
   RPACOR =    2.000    partial core radius                                     
   POMASS =   58.933; ZVAL   =    9.000    mass and valenz                      
   RCORE  =    2.300    outmost cutoff radius                                   
   RWIGS  =    2.460; RWIGS  =    1.302    wigner-seitz radius (au A)           
   ENMAX  =  267.968; ENMIN  =  200.976 eV                                      
   RCLOC  =    1.203    cutoff for local pot                                    
   LCOR   =        T    correct aug charges                                     
   LPAW   =        T    paw PP                                                  
   EAUG   =  477.818                                                            
   DEXC   =    0.000                                                            
   RMAX   =    2.360    core radius for proj-oper                               
   RAUG   =    1.300    factor for augmentation sphere                          
   RDEP   =    2.393    radius for radial grids                                 
   RDEPT  =    1.864    core radius for aug-charge                              
                                                                                
   Atomic configuration                                                         
    9 entries                                                                   
     n  l   j            E        occ.                                          
     1  0  0.50     -7587.6674   2.0000                                         
     2  0  0.50      -893.6084   2.0000                                         
     2  1  1.50      -764.5805   6.0000                                         
     3  0  0.50       -97.5973   2.0000                                         
     3  1  1.50       -60.9648   6.0000                                         
     3  2  2.50        -4.2382   8.0000                                         
     4  0  0.50        -4.3746   1.0000                                         
     4  1  1.50        -4.0817   0.0000                                         
     4  3  2.50        -1.3606   0.0000                                         
   Description                                                                  
     l       E           TYP  RCUT    TYP  RCUT                                 
     2     -4.2382362     23  2.300                                             
     2     -5.5988188     23  2.300                                             
     0     -4.3745797     23  2.300                                             
     0      5.7660125     23  2.300                                             
     1     -2.7211652     23  2.300                                             
     1     16.9860234     23  2.300                                             
  local pseudopotential read in
  partial core-charges read in
  partial kinetic energy density read in
  atomic valenz-charges read in
  non local Contribution for L=           2  read in
    real space projection operators read in
  non local Contribution for L=           2  read in
    real space projection operators read in
  non local Contribution for L=           0  read in
    real space projection operators read in
  non local Contribution for L=           0  read in
    real space projection operators read in
  non local Contribution for L=           1  read in
    real space projection operators read in
  non local Contribution for L=           1  read in
    real space projection operators read in
    PAW grid and wavefunctions read in
 
   number of l-projection  operators is LMAX  =           6
   number of lm-projection operators is LMMAX =          18
 
 POTCAR:    PAW_PBE O 08Apr2002                   
   VRHFIN =O: s2p4                                                              
   LEXCH  = PE                                                                  
   EATOM  =   432.3788 eV,   31.7789 Ry                                         
                                                                                
   TITEL  = PAW_PBE O 08Apr2002                                                 
   LULTRA =        F    use ultrasoft PP ?                                      
   IUNSCR =        1    unscreen: 0-lin 1-nonlin 2-no                           
   RPACOR =    1.200    partial core radius                                     
   POMASS =   16.000; ZVAL   =    6.000    mass and valenz                      
   RCORE  =    1.520    outmost cutoff radius                                   
   RWIGS  =    1.550; RWIGS  =    0.820    wigner-seitz radius (au A)           
   ENMAX  =  400.000; ENMIN  =  300.000 eV                                      
   ICORE  =        2    local potential                                         
   LCOR   =        T    correct aug charges                                     
   LPAW   =        T    paw PP                                                  
   EAUG   =  605.392                                                            
   DEXC   =    0.000                                                            
   RMAX   =    1.553    core radius for proj-oper                               
   RAUG   =    1.300    factor for augmentation sphere                          
   RDEP   =    1.550    radius for radial grids                                 
   RDEPT  =    1.329    core radius for aug-charge                              
                                                                                
   Atomic configuration                                                         
    4 entries                                                                   
     n  l   j            E        occ.                                          
     1  0  0.50      -514.6923   2.0000                                         
     2  0  0.50       -23.9615   2.0000                                         
     2  1  0.50        -9.0305   4.0000                                         
     3  2  1.50        -9.5241   0.0000                                         
   Description                                                                  
     l       E           TYP  RCUT    TYP  RCUT                                 
     0    -23.9615318     23  1.200                                             
     0     -9.5240782     23  1.200                                             
     1     -9.0304911     23  1.520                                             
     1      8.1634956     23  1.520                                             
     2     -9.5240782      7  1.500                                             
  local pseudopotential read in
  partial core-charges read in
  partial kinetic energy density read in
  kinetic energy density of atom read in
  atomic valenz-charges read in
  non local Contribution for L=           0  read in
    real space projection operators read in
  non local Contribution for L=           0  read in
    real space projection operators read in
  non local Contribution for L=           1  read in
    real space projection operators read in
  non local Contribution for L=           1  read in
    real space projection operators read in
    PAW grid and wavefunctions read in
 
   number of l-projection  operators is LMAX  =           4
   number of lm-projection operators is LMMAX =           8
 
  PAW_PBE Co 02Aug2007                  :
 energy of atom  1       EATOM= -813.3670
 kinetic energy error for atom=    0.0006 (will be added to EATOM!!)
  PAW_PBE O 08Apr2002                   :
 energy of atom  2       EATOM= -432.3788
 kinetic energy error for atom=    0.0091 (will be added to EATOM!!)
 
 
 POSCAR: Li3 Co3 O6                              
  positions in direct lattice
  velocities in cartesian coordinates
 exchange correlation table for  LEXCH =        8
   RHO(1)=    0.500       N(1)  =     2000
   RHO(2)=  100.500       N(2)  =     4000

 VTST: version 3.1, (03/28/14)

 CHAIN: initializing optimizer
 
 OPT: Using VASP QUASI-newton optimizer
 CHAIN: Read ICHAIN            0
 
 POSCAR: Li3 Co3 O6                              
  positions in direct lattice
  velocities in cartesian coordinates
 


--------------------------------------------------------------------------------------------------------


 ion  position               nearest neighbor table
   1  0.333  0.667  0.167-   4 2.03   4 2.03   4 2.03   5 2.03   5 2.03   5 2.03
   2  0.000  1.000  0.499-   7 2.03   7 2.03   7 2.03   6 2.03   6 2.03   6 2.03
   3  0.667  0.333  0.833-   8 2.03   8 2.03   8 2.03   9 2.03   9 2.03   9 2.03
   4  1.000  1.000  0.215-   1 2.03   1 2.03   1 2.03
   5  0.667  0.333  0.119-   1 2.03   1 2.03   1 2.03
   6  0.667  0.333  0.547-   2 2.03   2 2.03   2 2.03
   7  0.333  0.667  0.452-   2 2.03   2 2.03   2 2.03
   8  0.333  0.667  0.881-   3 2.03   3 2.03   3 2.03
   9  0.000  0.000  0.785-   3 2.03   3 2.03   3 2.03
 
  LATTYP: Found a triclinic cell.
 ALAT       =     4.9027446120
 B/A-ratio  =     0.5773519937
 C/A-ratio  =     5.4772293992
 COS(alpha) =     0.0000318714
 COS(beta)  =     0.1825643144
 COS(gamma) =     0.8660251980
  
  Lattice vectors:
  
 A1 = (   4.2459072317,  -2.4513621743,  -0.0000241002)
 A2 = (   2.8306093760,   0.0000079180,   0.0000582197)
 A3 = (   0.0003690945,  -9.8046129174,  24.9995542810)


Analysis of symmetry for initial positions (statically):
=====================================================================
 Subroutine PRICEL returns:
 Original cell was already a primitive cell.
 

 Routine SETGRP: Setting up the symmetry group for a 
 triclinic supercell.


 Subroutine GETGRP returns: Found  1 space group operations
 (whereof  1 operations were pure point group operations)
 out of a pool of  2 trial point group operations.


The static configuration has the point symmetry C_1 .


Analysis of symmetry for dynamics (positions and initial velocities):
=====================================================================
 Subroutine PRICEL returns:
 Original cell was already a primitive cell.
 

 Routine SETGRP: Setting up the symmetry group for a 
 triclinic supercell.


 Subroutine GETGRP returns: Found  1 space group operations
 (whereof  1 operations were pure point group operations)
 out of a pool of  2 trial point group operations.


The dynamic configuration has the point symmetry C_1 .


Analysis of structural, dynamic, and magnetic symmetry:
=====================================================================
 Subroutine PRICEL returns:
 Original cell was already a primitive cell.
 

 Routine SETGRP: Setting up the symmetry group for a 
 triclinic supercell.


 Subroutine GETGRP returns: Found  1 space group operations
 (whereof  1 operations were pure point group operations)
 out of a pool of  2 trial point group operations.


The magnetic configuration has the point symmetry C_1 .


 Subroutine INISYM returns: Found  1 space group operations
 (whereof  1 operations are pure point group operations),
 and found     1 'primitive' translations

 
 
 KPOINTS: Automatic mesh # Generated by make_vasp 

Automatic generation of k-mesh.
Space group operators:
 irot       det(A)        alpha          n_x          n_y          n_z        tau_x        tau_y        tau_z
    1     1.000000     0.000000     1.000000     0.000000     0.000000     0.000000     0.000000     0.000000
 
 Subroutine IBZKPT returns following result:
 ===========================================
 
 Found    172 irreducible k-points:
 
 Following reciprocal coordinates:
            Coordinates               Weight
  0.000000  0.000000  0.000000      1.000000
  0.142857 -0.000000 -0.000000      2.000000
  0.285714 -0.000000 -0.000000      2.000000
  0.428571 -0.000000 -0.000000      2.000000
 -0.000000  0.142857 -0.000000      2.000000
  0.142857  0.142857 -0.000000      2.000000
  0.285714  0.142857 -0.000000      2.000000
  0.428571  0.142857 -0.000000      2.000000
 -0.428571  0.142857  0.000000      2.000000
 -0.285714  0.142857  0.000000      2.000000
 -0.142857  0.142857 -0.000000      2.000000
 -0.000000  0.285714 -0.000000      2.000000
  0.142857  0.285714 -0.000000      2.000000
  0.285714  0.285714 -0.000000      2.000000
  0.428571  0.285714 -0.000000      2.000000
 -0.428571  0.285714  0.000000      2.000000
 -0.285714  0.285714 -0.000000      2.000000
 -0.142857  0.285714 -0.000000      2.000000
  0.000000  0.428571 -0.000000      2.000000
  0.142857  0.428571 -0.000000      2.000000
  0.285714  0.428571 -0.000000      2.000000
  0.428571  0.428571  0.000000      2.000000
 -0.428571  0.428571 -0.000000      2.000000
 -0.285714  0.428571 -0.000000      2.000000
 -0.142857  0.428571 -0.000000      2.000000
  0.000000  0.000000  0.142857      2.000000
  0.142857 -0.000000  0.142857      2.000000
  0.285714 -0.000000  0.142857      2.000000
  0.428571 -0.000000  0.142857      2.000000
 -0.428571  0.000000  0.142857      2.000000
 -0.285714  0.000000  0.142857      2.000000
 -0.142857  0.000000  0.142857      2.000000
  0.000000  0.142857  0.142857      2.000000
  0.142857  0.142857  0.142857      2.000000
  0.285714  0.142857  0.142857      2.000000
  0.428571  0.142857  0.142857      2.000000
 -0.428571  0.142857  0.142857      2.000000
 -0.285714  0.142857  0.142857      2.000000
 -0.142857  0.142857  0.142857      2.000000
  0.000000  0.285714  0.142857      2.000000
  0.142857  0.285714  0.142857      2.000000
  0.285714  0.285714  0.142857      2.000000
  0.428571  0.285714  0.142857      2.000000
 -0.428571  0.285714  0.142857      2.000000
 -0.285714  0.285714  0.142857      2.000000
 -0.142857  0.285714  0.142857      2.000000
  0.000000  0.428571  0.142857      2.000000
  0.142857  0.428571  0.142857      2.000000
  0.285714  0.428571  0.142857      2.000000
  0.428571  0.428571  0.142857      2.000000
 -0.428571  0.428571  0.142857      2.000000
 -0.285714  0.428571  0.142857      2.000000
 -0.142857  0.428571  0.142857      2.000000
  0.000000 -0.428571  0.142857      2.000000
  0.142857 -0.428571  0.142857      2.000000
  0.285714 -0.428571  0.142857      2.000000
  0.428571 -0.428571  0.142857      2.000000
 -0.428571 -0.428571  0.142857      2.000000
 -0.285714 -0.428571  0.142857      2.000000
 -0.142857 -0.428571  0.142857      2.000000
  0.000000 -0.285714  0.142857      2.000000
  0.142857 -0.285714  0.142857      2.000000
  0.285714 -0.285714  0.142857      2.000000
  0.428571 -0.285714  0.142857      2.000000
 -0.428571 -0.285714  0.142857      2.000000
 -0.285714 -0.285714  0.142857      2.000000
 -0.142857 -0.285714  0.142857      2.000000
  0.000000 -0.142857  0.142857      2.000000
  0.142857 -0.142857  0.142857      2.000000
  0.285714 -0.142857  0.142857      2.000000
  0.428571 -0.142857  0.142857      2.000000
 -0.428571 -0.142857  0.142857      2.000000
 -0.285714 -0.142857  0.142857      2.000000
 -0.142857 -0.142857  0.142857      2.000000
  0.000000  0.000000  0.285714      2.000000
  0.142857 -0.000000  0.285714      2.000000
  0.285714 -0.000000  0.285714      2.000000
  0.428571  0.000000  0.285714      2.000000
 -0.428571  0.000000  0.285714      2.000000
 -0.285714  0.000000  0.285714      2.000000
 -0.142857  0.000000  0.285714      2.000000
 -0.000000  0.142857  0.285714      2.000000
  0.142857  0.142857  0.285714      2.000000
  0.285714  0.142857  0.285714      2.000000
  0.428571  0.142857  0.285714      2.000000
 -0.428571  0.142857  0.285714      2.000000
 -0.285714  0.142857  0.285714      2.000000
 -0.142857  0.142857  0.285714      2.000000
  0.000000  0.285714  0.285714      2.000000
  0.142857  0.285714  0.285714      2.000000
  0.285714  0.285714  0.285714      2.000000
  0.428571  0.285714  0.285714      2.000000
 -0.428571  0.285714  0.285714      2.000000
 -0.285714  0.285714  0.285714      2.000000
 -0.142857  0.285714  0.285714      2.000000
 -0.000000  0.428571  0.285714      2.000000
  0.142857  0.428571  0.285714      2.000000
  0.285714  0.428571  0.285714      2.000000
  0.428571  0.428571  0.285714      2.000000
 -0.428571  0.428571  0.285714      2.000000
 -0.285714  0.428571  0.285714      2.000000
 -0.142857  0.428571  0.285714      2.000000
  0.000000 -0.428571  0.285714      2.000000
  0.142857 -0.428571  0.285714      2.000000
  0.285714 -0.428571  0.285714      2.000000
  0.428571 -0.428571  0.285714      2.000000
 -0.428571 -0.428571  0.285714      2.000000
 -0.285714 -0.428571  0.285714      2.000000
 -0.142857 -0.428571  0.285714      2.000000
  0.000000 -0.285714  0.285714      2.000000
  0.142857 -0.285714  0.285714      2.000000
  0.285714 -0.285714  0.285714      2.000000
  0.428571 -0.285714  0.285714      2.000000
 -0.428571 -0.285714  0.285714      2.000000
 -0.285714 -0.285714  0.285714      2.000000
 -0.142857 -0.285714  0.285714      2.000000
  0.000000 -0.142857  0.285714      2.000000
  0.142857 -0.142857  0.285714      2.000000
  0.285714 -0.142857  0.285714      2.000000
  0.428571 -0.142857  0.285714      2.000000
 -0.428571 -0.142857  0.285714      2.000000
 -0.285714 -0.142857  0.285714      2.000000
 -0.142857 -0.142857  0.285714      2.000000
  0.000000  0.000000  0.428571      2.000000
  0.142857 -0.000000  0.428571      2.000000
  0.285714 -0.000000  0.428571      2.000000
  0.428571 -0.000000  0.428571      2.000000
 -0.428571  0.000000  0.428571      2.000000
 -0.285714  0.000000  0.428571      2.000000
 -0.142857  0.000000  0.428571      2.000000
  0.000000  0.142857  0.428571      2.000000
  0.142857  0.142857  0.428571      2.000000
  0.285714  0.142857  0.428571      2.000000
  0.428571  0.142857  0.428571      2.000000
 -0.428571  0.142857  0.428571      2.000000
 -0.285714  0.142857  0.428571      2.000000
 -0.142857  0.142857  0.428571      2.000000
  0.000000  0.285714  0.428571      2.000000
  0.142857  0.285714  0.428571      2.000000
  0.285714  0.285714  0.428571      2.000000
  0.428571  0.285714  0.428571      2.000000
 -0.428571  0.285714  0.428571      2.000000
 -0.285714  0.285714  0.428571      2.000000
 -0.142857  0.285714  0.428571      2.000000
  0.000000  0.428571  0.428571      2.000000
  0.142857  0.428571  0.428571      2.000000
  0.285714  0.428571  0.428571      2.000000
  0.428571  0.428571  0.428571      2.000000
 -0.428571  0.428571  0.428571      2.000000
 -0.285714  0.428571  0.428571      2.000000
 -0.142857  0.428571  0.428571      2.000000
  0.000000 -0.428571  0.428571      2.000000
  0.142857 -0.428571  0.428571      2.000000
  0.285714 -0.428571  0.428571      2.000000
  0.428571 -0.428571  0.428571      2.000000
 -0.428571 -0.428571  0.428571      2.000000
 -0.285714 -0.428571  0.428571      2.000000
 -0.142857 -0.428571  0.428571      2.000000
  0.000000 -0.285714  0.428571      2.000000
  0.142857 -0.285714  0.428571      2.000000
  0.285714 -0.285714  0.428571      2.000000
  0.428571 -0.285714  0.428571      2.000000
 -0.428571 -0.285714  0.428571      2.000000
 -0.285714 -0.285714  0.428571      2.000000
 -0.142857 -0.285714  0.428571      2.000000
  0.000000 -0.142857  0.428571      2.000000
  0.142857 -0.142857  0.428571      2.000000
  0.285714 -0.142857  0.428571      2.000000
  0.428571 -0.142857  0.428571      2.000000
 -0.428571 -0.142857  0.428571      2.000000
 -0.285714 -0.142857  0.428571      2.000000
 -0.142857 -0.142857  0.428571      2.000000
 
 Following cartesian coordinates:
            Coordinates               Weight
  0.000000  0.000000  0.000000      1.000000
  0.050469  0.029138 -0.000002      2.000000
  0.100937  0.058276 -0.000004      2.000000
  0.151406  0.087414 -0.000005      2.000000
 -0.000000  0.058276 -0.000002      2.000000
  0.050468  0.087414 -0.000004      2.000000
  0.100937  0.116552 -0.000006      2.000000
  0.151406  0.145690 -0.000008      2.000000
 -0.151406 -0.029138  0.000003      2.000000
 -0.100937  0.000000  0.000002      2.000000
 -0.050469  0.029138 -0.000000      2.000000
 -0.000000  0.116553 -0.000004      2.000000
  0.050468  0.145691 -0.000006      2.000000
  0.100937  0.174829 -0.000008      2.000000
  0.151405  0.203967 -0.000010      2.000000
 -0.151406  0.029139  0.000001      2.000000
 -0.100938  0.058277 -0.000000      2.000000
 -0.050469  0.087415 -0.000002      2.000000
 -0.000000  0.174829 -0.000006      2.000000
  0.050468  0.203967 -0.000008      2.000000
  0.100937  0.233105 -0.000010      2.000000
  0.151405  0.262243 -0.000012      2.000000
 -0.151406  0.087415 -0.000001      2.000000
 -0.100938  0.116553 -0.000003      2.000000
 -0.050469  0.145691 -0.000004      2.000000
 -0.000000 -0.000000  0.005714      2.000000
  0.050468  0.029138  0.005712      2.000000
  0.100937  0.058276  0.005711      2.000000
  0.151406  0.087414  0.005709      2.000000
 -0.151406 -0.087414  0.005720      2.000000
 -0.100937 -0.058276  0.005718      2.000000
 -0.050469 -0.029138  0.005716      2.000000
 -0.000000  0.058276  0.005712      2.000000
  0.050468  0.087414  0.005710      2.000000
  0.100937  0.116552  0.005709      2.000000
  0.151406  0.145690  0.005707      2.000000
 -0.151406 -0.029138  0.005718      2.000000
 -0.100937  0.000000  0.005716      2.000000
 -0.050469  0.029138  0.005714      2.000000
 -0.000000  0.116552  0.005710      2.000000
  0.050468  0.145690  0.005708      2.000000
  0.100937  0.174829  0.005707      2.000000
  0.151405  0.203967  0.005705      2.000000
 -0.151406  0.029138  0.005716      2.000000
 -0.100938  0.058276  0.005714      2.000000
 -0.050469  0.087414  0.005712      2.000000
 -0.000001  0.174829  0.005708      2.000000
  0.050468  0.203967  0.005706      2.000000
  0.100937  0.233105  0.005704      2.000000
  0.151405  0.262243  0.005703      2.000000
 -0.151406  0.087415  0.005714      2.000000
 -0.100938  0.116553  0.005712      2.000000
 -0.050469  0.145691  0.005710      2.000000
  0.000000 -0.174829  0.005720      2.000000
  0.050469 -0.145691  0.005719      2.000000
  0.100938 -0.116553  0.005717      2.000000
  0.151406 -0.087415  0.005715      2.000000
 -0.151405 -0.262243  0.005726      2.000000
 -0.100937 -0.233105  0.005724      2.000000
 -0.050468 -0.203967  0.005722      2.000000
  0.000000 -0.116553  0.005718      2.000000
  0.050469 -0.087415  0.005717      2.000000
  0.100937 -0.058277  0.005715      2.000000
  0.151406 -0.029139  0.005713      2.000000
 -0.151406 -0.203967  0.005724      2.000000
 -0.100937 -0.174829  0.005722      2.000000
 -0.050468 -0.145691  0.005720      2.000000
  0.000000 -0.058277  0.005716      2.000000
  0.050469 -0.029139  0.005715      2.000000
  0.100937 -0.000001  0.005713      2.000000
  0.151406  0.029137  0.005711      2.000000
 -0.151406 -0.145691  0.005722      2.000000
 -0.100937 -0.116553  0.005720      2.000000
 -0.050469 -0.087415  0.005718      2.000000
 -0.000000 -0.000001  0.011429      2.000000
  0.050468  0.029138  0.011427      2.000000
  0.100937  0.058276  0.011425      2.000000
  0.151406  0.087414  0.011423      2.000000
 -0.151406 -0.087415  0.011434      2.000000
 -0.100937 -0.058277  0.011432      2.000000
 -0.050469 -0.029139  0.011430      2.000000
 -0.000000  0.058276  0.011427      2.000000
  0.050468  0.087414  0.011425      2.000000
  0.100937  0.116552  0.011423      2.000000
  0.151405  0.145690  0.011421      2.000000
 -0.151406 -0.029138  0.011432      2.000000
 -0.100938 -0.000000  0.011430      2.000000
 -0.050469  0.029138  0.011428      2.000000
 -0.000001  0.116552  0.011424      2.000000
  0.050468  0.145690  0.011423      2.000000
  0.100937  0.174828  0.011421      2.000000
  0.151405  0.203966  0.011419      2.000000
 -0.151406  0.029138  0.011430      2.000000
 -0.100938  0.058276  0.011428      2.000000
 -0.050469  0.087414  0.011426      2.000000
 -0.000001  0.174829  0.011422      2.000000
  0.050468  0.203967  0.011421      2.000000
  0.100936  0.233105  0.011419      2.000000
  0.151405  0.262243  0.011417      2.000000
 -0.151407  0.087414  0.011428      2.000000
 -0.100938  0.116552  0.011426      2.000000
 -0.050469  0.145691  0.011424      2.000000
  0.000000 -0.174830  0.011435      2.000000
  0.050469 -0.145692  0.011433      2.000000
  0.100937 -0.116554  0.011431      2.000000
  0.151406 -0.087415  0.011429      2.000000
 -0.151406 -0.262244  0.011440      2.000000
 -0.100937 -0.233106  0.011438      2.000000
 -0.050468 -0.203968  0.011437      2.000000
  0.000000 -0.116553  0.011433      2.000000
  0.050469 -0.087415  0.011431      2.000000
  0.100937 -0.058277  0.011429      2.000000
  0.151406 -0.029139  0.011427      2.000000
 -0.151406 -0.203967  0.011438      2.000000
 -0.100937 -0.174829  0.011436      2.000000
 -0.050469 -0.145691  0.011435      2.000000
 -0.000000 -0.058277  0.011431      2.000000
  0.050469 -0.029139  0.011429      2.000000
  0.100937 -0.000001  0.011427      2.000000
  0.151406  0.029137  0.011425      2.000000
 -0.151406 -0.145691  0.011436      2.000000
 -0.100937 -0.116553  0.011434      2.000000
 -0.050469 -0.087415  0.011432      2.000000
 -0.000000 -0.000001  0.017143      2.000000
  0.050468  0.029137  0.017141      2.000000
  0.100937  0.058275  0.017139      2.000000
  0.151405  0.087413  0.017137      2.000000
 -0.151406 -0.087415  0.017148      2.000000
 -0.100938 -0.058277  0.017147      2.000000
 -0.050469 -0.029139  0.017145      2.000000
 -0.000001  0.058276  0.017141      2.000000
  0.050468  0.087414  0.017139      2.000000
  0.100937  0.116552  0.017137      2.000000
  0.151405  0.145690  0.017135      2.000000
 -0.151406 -0.029139  0.017146      2.000000
 -0.100938 -0.000000  0.017144      2.000000
 -0.050469  0.029138  0.017143      2.000000
 -0.000001  0.116552  0.017139      2.000000
  0.050468  0.145690  0.017137      2.000000
  0.100937  0.174828  0.017135      2.000000
  0.151405  0.203966  0.017133      2.000000
 -0.151406  0.029138  0.017144      2.000000
 -0.100938  0.058276  0.017142      2.000000
 -0.050469  0.087414  0.017141      2.000000
 -0.000001  0.174828  0.017137      2.000000
  0.050468  0.203966  0.017135      2.000000
  0.100936  0.233104  0.017133      2.000000
  0.151405  0.262242  0.017131      2.000000
 -0.151407  0.087414  0.017142      2.000000
 -0.100938  0.116552  0.017140      2.000000
 -0.050469  0.145690  0.017139      2.000000
  0.000000 -0.174830  0.017149      2.000000
  0.050469 -0.145692  0.017147      2.000000
  0.100937 -0.116554  0.017145      2.000000
  0.151406 -0.087416  0.017144      2.000000
 -0.151406 -0.262244  0.017155      2.000000
 -0.100937 -0.233106  0.017153      2.000000
 -0.050468 -0.203968  0.017151      2.000000
 -0.000000 -0.116553  0.017147      2.000000
  0.050469 -0.087415  0.017145      2.000000
  0.100937 -0.058277  0.017143      2.000000
  0.151406 -0.029139  0.017141      2.000000
 -0.151406 -0.203968  0.017152      2.000000
 -0.100937 -0.174830  0.017151      2.000000
 -0.050469 -0.145692  0.017149      2.000000
 -0.000000 -0.058277  0.017145      2.000000
  0.050468 -0.029139  0.017143      2.000000
  0.100937 -0.000001  0.017141      2.000000
  0.151406  0.029137  0.017139      2.000000
 -0.151406 -0.145691  0.017150      2.000000
 -0.100937 -0.116553  0.017149      2.000000
 -0.050469 -0.087415  0.017147      2.000000
 


--------------------------------------------------------------------------------------------------------




 Dimension of arrays:
   k-points           NKPTS =    172   k-points in BZ     NKDIM =    172   number of bands    NBANDS=     50
   number of dos      NEDOS =    301   number of ions     NIONS =      9
   non local maximal  LDIM  =      6   non local SUM 2l+1 LMDIM =     18
   total plane-waves  NPLWV =  52488
   max r-space proj   IRMAX =      1   max aug-charges    IRDMAX=  12131
   dimension x,y,z NGX =    18 NGY =   18 NGZ =  162
   dimension x,y,z NGXF=    36 NGYF=   36 NGZF=  324
   support grid    NGXF=    36 NGYF=   36 NGZF=  324
   ions per type =               3   6
   NGX,Y,Z   is equivalent  to a cutoff of  10.57, 10.57, 10.77 a.u.
   NGXF,Y,Z  is equivalent  to a cutoff of  21.14, 21.14, 21.55 a.u.

 SYSTEM =  BLANK INCAR GENERATED VIA vasp_gen_wrap 
 POSCAR =  Li3 Co3 O6                              

 Startparameter for this run:
   NWRITE =      2    write-flag & timer
   PREC   = normal    normal or accurate (medium, high low for compatibility)
   ISTART =      0    job   : 0-new  1-cont  2-samecut
   ICHARG =      2    charge: 1-file 2-atom 10-const
   ISPIN  =      2    spin polarized calculation?
   LNONCOLLINEAR =      F non collinear calculations
   LSORBIT =      F    spin-orbit coupling
   INIWAV =      1    electr: 0-lowe 1-rand  2-diag
   LASPH  =      F    aspherical Exc in radial PAW
   METAGGA=      F    non-selfconsistent MetaGGA calc.

 Electronic Relaxation 1
   ENCUT  =  700.0 eV  51.45 Ry    7.17 a.u.   6.11  6.11 53.93*2*pi/ulx,y,z
   ENINI  =  700.0     initial cutoff
   ENAUG  =  605.4 eV  augmentation charge cutoff
   NELM   =     60;   NELMIN=  2; NELMDL= -5     # of ELM steps 
   EDIFF  = 0.1E-04   stopping-criterion for ELM
   LREAL  =      F    real-space projection
   NLSPLINE    = F    spline interpolate recip. space projectors
   LCOMPAT=      F    compatible to vasp.4.4
   GGA_COMPAT  = T    GGA compatible to vasp.4.4-vasp.4.6
   LMAXPAW     = -100 max onsite density
   LMAXMIX     =    4 max onsite mixed and CHGCAR
   VOSKOWN=      0    Vosko Wilk Nusair interpolation
   ROPT   =    0.00000   0.00000
 Ionic relaxation
   EDIFFG = 0.5E-04   stopping-criterion for IOM
   NSW    =      0    number of steps for IOM
   NBLOCK =      1;   KBLOCK =      1    inner block; outer block 
   IBRION =     -1    ionic relax: 0-MD 1-quasi-New 2-CG
   NFREE  =      0    steps in history (QN), initial steepest desc. (CG)
   ISIF   =      3    stress and relaxation
   IWAVPR =     10    prediction:  0-non 1-charg 2-wave 3-comb
   ISYM   =      2    0-nonsym 1-usesym 2-fastsym
   LCORR  =      T    Harris-Foulkes like correction to forces

   POTIM  = 0.5000    time-step for ionic-motion
   TEIN   =    0.0    initial temperature
   TEBEG  =    0.0;   TEEND  =   0.0 temperature during run
   SMASS  =  -3.00    Nose mass-parameter (am)
   estimated Nose-frequenzy (Omega)   =  0.10E-29 period in steps =****** mass=  -0.183E-27a.u.
   SCALEE = 1.0000    scale energy and forces
   NPACO  =    256;   APACO  = 16.0  distance and # of slots for P.C.
   PSTRESS=    0.0 pullay stress

  Mass of Ions in am
   POMASS =  58.93 16.00
  Ionic Valenz
   ZVAL   =   9.00  6.00
  Atomic Wigner-Seitz radii
   RWIGS  =  -1.00 -1.00
  virtual crystal weights 
   VCA    =   1.00  1.00
   NELECT =      63.0000    total number of electrons
   NUPDOWN=      -1.0000    fix difference up-down

 DOS related values:
   EMIN   =  10.00;   EMAX   =-10.00  energy-range for DOS
   EFERMI =   0.00
   ISMEAR =     0;   SIGMA  =   0.05  broadening in eV -4-tet -1-fermi 0-gaus

 Electronic relaxation 2 (details)
   IALGO  =     38    algorithm
   LDIAG  =      T    sub-space diagonalisation (order eigenvalues)
   LSUBROT=      F    optimize rotation matrix (better conditioning)
   TURBO    =      0    0=normal 1=particle mesh
   IRESTART =      0    0=no restart 2=restart with 2 vectors
   NREBOOT  =      0    no. of reboots
   NMIN     =      0    reboot dimension
   EREF     =   0.00    reference energy to select bands
   IMIX   =      4    mixing-type and parameters
     AMIX     =   0.40;   BMIX     =  1.00
     AMIX_MAG =   1.60;   BMIX_MAG =  1.00
     AMIN     =   0.10
     WC   =   100.;   INIMIX=   1;  MIXPRE=   1;  MAXMIX= -45

 Intra band minimization:
   WEIMIN = 0.0000     energy-eigenvalue tresh-hold
   EBREAK =  0.25E-07  absolut break condition
   DEPER  =   0.30     relativ break condition  

   TIME   =   0.40     timestep for ELM

  volume/ion in A,a.u.               =      19.27       130.07
  Fermi-wavevector in a.u.,A,eV,Ry     =   1.168006  2.207212 18.561593  1.364239
  Thomas-Fermi vector in A             =   2.304499
 
 Write flags
   LWAVE        =      T    write WAVECAR
   LDOWNSAMPLE  =      F    k-point downsampling of WAVECAR
   LCHARG       =      T    write CHGCAR
   LVTOT        =      F    write LOCPOT, total local potential
   LVHAR        =      T    write LOCPOT, Hartree potential only
   LELF         =      F    write electronic localiz. function (ELF)
   LORBIT       =     11    0 simple, 1 ext, 2 COOP (PROOUT), +10 PAW based schemes


 Dipole corrections
   LMONO  =      F    monopole corrections only (constant potential shift)
   LDIPOL =      F    correct potential (dipole corrections)
   IDIPOL =      0    1-x, 2-y, 3-z, 4-all directions 
   EPSILON=  1.0000000 bulk dielectric constant

 LDA+U is selected, type is set to LDAUTYPE =  2
   angular momentum for each species LDAUL =     2    0
   U (eV)           for each species LDAUU =   3.9  0.0
   J (eV)           for each species LDAUJ =   0.0  0.0
 Exchange correlation treatment:
   GGA     =    --    GGA type
   LEXCH   =     8    internal setting for exchange type
   VOSKOWN=      0    Vosko Wilk Nusair interpolation
   LHFCALC =     F    Hartree Fock is set to
   LHFONE  =     F    Hartree Fock one center treatment
   AEXX    =    0.0000 exact exchange contribution

 Linear response parameters
   LEPSILON=     F    determine dielectric tensor
   LRPA    =     F    only Hartree local field effects (RPA)
   LNABLA  =     F    use nabla operator in PAW spheres
   LVEL    =     F    velocity operator in full k-point grid
   LINTERFAST=   F  fast interpolation
   KINTER  =     0    interpolate to denser k-point grid
   CSHIFT  =0.1000    complex shift for real part using Kramers Kronig
   OMEGAMAX=  -1.0    maximum frequency
   DEG_THRESHOLD= 0.2000000E-02 threshold for treating states as degnerate
   RTIME   =   -0.100 relaxation time in fs
  (WPLASMAI=    0.000 imaginary part of plasma frequency in eV, 0.658/RTIME)
   DFIELD  = 0.0000000 0.0000000 0.0000000 field for delta impulse in time
 
 Orbital magnetization related:
   ORBITALMAG=     F  switch on orbital magnetization
   LCHIMAG   =     F  perturbation theory with respect to B field
   DQ        =  0.001000  dq finite difference perturbation B field
   LLRAUG    =     F  two centre corrections for induced B field



--------------------------------------------------------------------------------------------------------


 Static calculation
 charge density and potential will be updated during run
 spin polarized calculation
 Variant of blocked Davidson
 Davidson routine will perform the subspace rotation
 perform sub-space diagonalisation
    after iterative eigenvector-optimisation
 modified Broyden-mixing scheme, WC =      100.0
 initial mixing is a Kerker type mixing with AMIX =  0.4000 and BMIX =      1.0000
 Hartree-type preconditioning will be used
 using additional bands           18
 reciprocal scheme for non local part
 use partial core corrections
 calculate Harris-corrections to forces 
   (improved forces if not selfconsistent)
 use gradient corrections 
 use of overlap-Matrix (Vanderbilt PP)
 Gauss-broadening in eV      SIGMA  =   0.05


--------------------------------------------------------------------------------------------------------


  energy-cutoff  :      700.00
  volume of cell :      173.47
      direct lattice vectors                 reciprocal lattice vectors
     2.830609376  0.000007918  0.000058220     0.353280249  0.203966256 -0.000012808
    -1.415297856  2.451370092  0.000082320    -0.000001141  0.407934481 -0.000014413
     0.000396423  0.000883287 25.000000000    -0.000000823 -0.000001818  0.040000000

  length of vectors
     2.830609377  2.830597703 25.000000019     0.407932799  0.407934481  0.040000000


 
 k-points in units of 2pi/SCALE and weight: Automatic mesh # Generated by make_vasp 
   0.00000000  0.00000000  0.00000000       0.003
   0.05046861  0.02913804 -0.00000183       0.006
   0.10093721  0.05827607 -0.00000366       0.006
   0.15140582  0.08741411 -0.00000549       0.006
  -0.00000016  0.05827635 -0.00000206       0.006
   0.05046844  0.08741439 -0.00000389       0.006
   0.10093705  0.11655243 -0.00000572       0.006
   0.15140566  0.14569046 -0.00000755       0.006
  -0.15140598 -0.02913776  0.00000343       0.006
  -0.10093738  0.00000028  0.00000160       0.006
  -0.05046877  0.02913832 -0.00000023       0.006
  -0.00000033  0.11655271 -0.00000412       0.006
   0.05046828  0.14569075 -0.00000595       0.006
   0.10093689  0.17482878 -0.00000778       0.006
   0.15140550  0.20396682 -0.00000961       0.006
  -0.15140615  0.02913860  0.00000137       0.006
  -0.10093754  0.05827664 -0.00000046       0.006
  -0.05046893  0.08741467 -0.00000229       0.006
  -0.00000049  0.17482906 -0.00000618       0.006
   0.05046812  0.20396710 -0.00000801       0.006
   0.10093673  0.23310514 -0.00000984       0.006
   0.15140533  0.26224317 -0.00001167       0.006
  -0.15140631  0.08741495 -0.00000069       0.006
  -0.10093770  0.11655299 -0.00000252       0.006
  -0.05046910  0.14569103 -0.00000435       0.006
  -0.00000012 -0.00000026  0.00571429       0.006
   0.05046849  0.02913778  0.00571246       0.006
   0.10093710  0.05827581  0.00571063       0.006
   0.15140570  0.08741385  0.00570880       0.006
  -0.15140594 -0.08741437  0.00571978       0.006
  -0.10093733 -0.05827633  0.00571795       0.006
  -0.05046872 -0.02913830  0.00571612       0.006
  -0.00000028  0.05827609  0.00571223       0.006
   0.05046833  0.08741413  0.00571040       0.006
   0.10093693  0.11655217  0.00570857       0.006
   0.15140554  0.14569020  0.00570674       0.006
  -0.15140610 -0.02913802  0.00571772       0.006
  -0.10093749  0.00000002  0.00571589       0.006
  -0.05046889  0.02913806  0.00571406       0.006
  -0.00000044  0.11655245  0.00571017       0.006
   0.05046816  0.14569049  0.00570834       0.006
   0.10093677  0.17482852  0.00570651       0.006
   0.15140538  0.20396656  0.00570468       0.006
  -0.15140626  0.02913834  0.00571566       0.006
  -0.10093766  0.05827638  0.00571383       0.006
  -0.05046905  0.08741441  0.00571200       0.006
  -0.00000061  0.17482880  0.00570811       0.006
   0.05046800  0.20396684  0.00570628       0.006
   0.10093661  0.23310488  0.00570445       0.006
   0.15140521  0.26224291  0.00570262       0.006
  -0.15140643  0.08741469  0.00571360       0.006
  -0.10093782  0.11655273  0.00571177       0.006
  -0.05046921  0.14569077  0.00570994       0.006
   0.00000037 -0.17482932  0.00572046       0.006
   0.05046898 -0.14569129  0.00571863       0.006
   0.10093759 -0.11655325  0.00571680       0.006
   0.15140619 -0.08741521  0.00571497       0.006
  -0.15140545 -0.26224343  0.00572595       0.006
  -0.10093684 -0.23310540  0.00572412       0.006
  -0.05046824 -0.20396736  0.00572229       0.006
   0.00000021 -0.11655297  0.00571840       0.006
   0.05046882 -0.08741493  0.00571657       0.006
   0.10093742 -0.05827690  0.00571474       0.006
   0.15140603 -0.02913886  0.00571291       0.006
  -0.15140561 -0.20396708  0.00572389       0.006
  -0.10093701 -0.17482904  0.00572206       0.006
  -0.05046840 -0.14569101  0.00572023       0.006
   0.00000005 -0.05827661  0.00571634       0.006
   0.05046865 -0.02913858  0.00571451       0.006
   0.10093726 -0.00000054  0.00571269       0.006
   0.15140587  0.02913750  0.00571086       0.006
  -0.15140578 -0.14569072  0.00572183       0.006
  -0.10093717 -0.11655269  0.00572000       0.006
  -0.05046856 -0.08741465  0.00571817       0.006
  -0.00000024 -0.00000052  0.01142857       0.006
   0.05046837  0.02913752  0.01142674       0.006
   0.10093698  0.05827555  0.01142491       0.006
   0.15140559  0.08741359  0.01142308       0.006
  -0.15140606 -0.08741463  0.01143406       0.006
  -0.10093745 -0.05827659  0.01143223       0.006
  -0.05046884 -0.02913856  0.01143040       0.006
  -0.00000040  0.05827583  0.01142651       0.006
   0.05046821  0.08741387  0.01142468       0.006
   0.10093682  0.11655191  0.01142285       0.006
   0.15140542  0.14568994  0.01142102       0.006
  -0.15140622 -0.02913827  0.01143200       0.006
  -0.10093761 -0.00000024  0.01143017       0.006
  -0.05046901  0.02913780  0.01142834       0.006
  -0.00000056  0.11655219  0.01142445       0.006
   0.05046805  0.14569023  0.01142262       0.006
   0.10093665  0.17482826  0.01142079       0.006
   0.15140526  0.20396630  0.01141896       0.006
  -0.15140638  0.02913808  0.01142994       0.006
  -0.10093778  0.05827612  0.01142811       0.006
  -0.05046917  0.08741415  0.01142628       0.006
  -0.00000072  0.17482854  0.01142239       0.006
   0.05046788  0.20396658  0.01142056       0.006
   0.10093649  0.23310462  0.01141873       0.006
   0.15140510  0.26224265  0.01141691       0.006
  -0.15140655  0.08741443  0.01142788       0.006
  -0.10093794  0.11655247  0.01142605       0.006
  -0.05046933  0.14569051  0.01142422       0.006
   0.00000025 -0.17482958  0.01143475       0.006
   0.05046886 -0.14569155  0.01143292       0.006
   0.10093747 -0.11655351  0.01143109       0.006
   0.15140607 -0.08741547  0.01142926       0.006
  -0.15140557 -0.26224369  0.01144024       0.006
  -0.10093696 -0.23310566  0.01143841       0.006
  -0.05046835 -0.20396762  0.01143658       0.006
   0.00000009 -0.11655323  0.01143269       0.006
   0.05046870 -0.08741519  0.01143086       0.006
   0.10093730 -0.05827716  0.01142903       0.006
   0.15140591 -0.02913912  0.01142720       0.006
  -0.15140573 -0.20396734  0.01143818       0.006
  -0.10093712 -0.17482930  0.01143635       0.006
  -0.05046852 -0.14569126  0.01143452       0.006
  -0.00000007 -0.05827687  0.01143063       0.006
   0.05046853 -0.02913884  0.01142880       0.006
   0.10093714 -0.00000080  0.01142697       0.006
   0.15140575  0.02913724  0.01142514       0.006
  -0.15140589 -0.14569098  0.01143612       0.006
  -0.10093729 -0.11655295  0.01143429       0.006
  -0.05046868 -0.08741491  0.01143246       0.006
  -0.00000035 -0.00000078  0.01714286       0.006
   0.05046825  0.02913726  0.01714103       0.006
   0.10093686  0.05827529  0.01713920       0.006
   0.15140547  0.08741333  0.01713737       0.006
  -0.15140617 -0.08741489  0.01714835       0.006
  -0.10093757 -0.05827685  0.01714652       0.006
  -0.05046896 -0.02913882  0.01714469       0.006
  -0.00000052  0.05827558  0.01714080       0.006
   0.05046809  0.08741361  0.01713897       0.006
   0.10093670  0.11655165  0.01713714       0.006
   0.15140531  0.14568968  0.01713531       0.006
  -0.15140634 -0.02913853  0.01714629       0.006
  -0.10093773 -0.00000050  0.01714446       0.006
  -0.05046912  0.02913754  0.01714263       0.006
  -0.00000068  0.11655193  0.01713874       0.006
   0.05046793  0.14568997  0.01713691       0.006
   0.10093654  0.17482800  0.01713508       0.006
   0.15140514  0.20396604  0.01713325       0.006
  -0.15140650  0.02913782  0.01714423       0.006
  -0.10093789  0.05827586  0.01714240       0.006
  -0.05046929  0.08741389  0.01714057       0.006
  -0.00000084  0.17482828  0.01713668       0.006
   0.05046777  0.20396632  0.01713485       0.006
   0.10093637  0.23310436  0.01713302       0.006
   0.15140498  0.26224239  0.01713119       0.006
  -0.15140666  0.08741417  0.01714217       0.006
  -0.10093806  0.11655221  0.01714034       0.006
  -0.05046945  0.14569025  0.01713851       0.006
   0.00000014 -0.17482984  0.01714903       0.006
   0.05046874 -0.14569181  0.01714720       0.006
   0.10093735 -0.11655377  0.01714537       0.006
   0.15140596 -0.08741573  0.01714354       0.006
  -0.15140568 -0.26224395  0.01715452       0.006
  -0.10093708 -0.23310592  0.01715269       0.006
  -0.05046847 -0.20396788  0.01715086       0.006
  -0.00000003 -0.11655349  0.01714698       0.006
   0.05046858 -0.08741545  0.01714515       0.006
   0.10093719 -0.05827741  0.01714332       0.006
   0.15140579 -0.02913938  0.01714149       0.006
  -0.15140585 -0.20396760  0.01715246       0.006
  -0.10093724 -0.17482956  0.01715063       0.006
  -0.05046863 -0.14569152  0.01714880       0.006
  -0.00000019 -0.05827713  0.01714492       0.006
   0.05046842 -0.02913910  0.01714309       0.006
   0.10093702 -0.00000106  0.01714126       0.006
   0.15140563  0.02913698  0.01713943       0.006
  -0.15140601 -0.14569124  0.01715041       0.006
  -0.10093740 -0.11655321  0.01714858       0.006
  -0.05046880 -0.08741517  0.01714675       0.006
 
 k-points in reciprocal lattice and weights: Automatic mesh # Generated by make_vasp 
   0.00000000  0.00000000  0.00000000       0.003
   0.14285714 -0.00000000 -0.00000000       0.006
   0.28571429 -0.00000000 -0.00000000       0.006
   0.42857143 -0.00000000 -0.00000000       0.006
  -0.00000000  0.14285714 -0.00000000       0.006
   0.14285714  0.14285714 -0.00000000       0.006
   0.28571429  0.14285714 -0.00000000       0.006
   0.42857143  0.14285714 -0.00000000       0.006
  -0.42857143  0.14285714  0.00000000       0.006
  -0.28571429  0.14285714  0.00000000       0.006
  -0.14285714  0.14285714 -0.00000000       0.006
  -0.00000000  0.28571429 -0.00000000       0.006
   0.14285714  0.28571429 -0.00000000       0.006
   0.28571429  0.28571429 -0.00000000       0.006
   0.42857143  0.28571429 -0.00000000       0.006
  -0.42857143  0.28571429  0.00000000       0.006
  -0.28571429  0.28571429 -0.00000000       0.006
  -0.14285714  0.28571429 -0.00000000       0.006
   0.00000000  0.42857143 -0.00000000       0.006
   0.14285714  0.42857143 -0.00000000       0.006
   0.28571429  0.42857143 -0.00000000       0.006
   0.42857143  0.42857143  0.00000000       0.006
  -0.42857143  0.42857143 -0.00000000       0.006
  -0.28571429  0.42857143 -0.00000000       0.006
  -0.14285714  0.42857143 -0.00000000       0.006
   0.00000000  0.00000000  0.14285714       0.006
   0.14285714 -0.00000000  0.14285714       0.006
   0.28571429 -0.00000000  0.14285714       0.006
   0.42857143 -0.00000000  0.14285714       0.006
  -0.42857143  0.00000000  0.14285714       0.006
  -0.28571429  0.00000000  0.14285714       0.006
  -0.14285714  0.00000000  0.14285714       0.006
   0.00000000  0.14285714  0.14285714       0.006
   0.14285714  0.14285714  0.14285714       0.006
   0.28571429  0.14285714  0.14285714       0.006
   0.42857143  0.14285714  0.14285714       0.006
  -0.42857143  0.14285714  0.14285714       0.006
  -0.28571429  0.14285714  0.14285714       0.006
  -0.14285714  0.14285714  0.14285714       0.006
   0.00000000  0.28571429  0.14285714       0.006
   0.14285714  0.28571429  0.14285714       0.006
   0.28571429  0.28571429  0.14285714       0.006
   0.42857143  0.28571429  0.14285714       0.006
  -0.42857143  0.28571429  0.14285714       0.006
  -0.28571429  0.28571429  0.14285714       0.006
  -0.14285714  0.28571429  0.14285714       0.006
   0.00000000  0.42857143  0.14285714       0.006
   0.14285714  0.42857143  0.14285714       0.006
   0.28571429  0.42857143  0.14285714       0.006
   0.42857143  0.42857143  0.14285714       0.006
  -0.42857143  0.42857143  0.14285714       0.006
  -0.28571429  0.42857143  0.14285714       0.006
  -0.14285714  0.42857143  0.14285714       0.006
   0.00000000 -0.42857143  0.14285714       0.006
   0.14285714 -0.42857143  0.14285714       0.006
   0.28571429 -0.42857143  0.14285714       0.006
   0.42857143 -0.42857143  0.14285714       0.006
  -0.42857143 -0.42857143  0.14285714       0.006
  -0.28571429 -0.42857143  0.14285714       0.006
  -0.14285714 -0.42857143  0.14285714       0.006
   0.00000000 -0.28571429  0.14285714       0.006
   0.14285714 -0.28571429  0.14285714       0.006
   0.28571429 -0.28571429  0.14285714       0.006
   0.42857143 -0.28571429  0.14285714       0.006
  -0.42857143 -0.28571429  0.14285714       0.006
  -0.28571429 -0.28571429  0.14285714       0.006
  -0.14285714 -0.28571429  0.14285714       0.006
   0.00000000 -0.14285714  0.14285714       0.006
   0.14285714 -0.14285714  0.14285714       0.006
   0.28571429 -0.14285714  0.14285714       0.006
   0.42857143 -0.14285714  0.14285714       0.006
  -0.42857143 -0.14285714  0.14285714       0.006
  -0.28571429 -0.14285714  0.14285714       0.006
  -0.14285714 -0.14285714  0.14285714       0.006
   0.00000000  0.00000000  0.28571429       0.006
   0.14285714 -0.00000000  0.28571429       0.006
   0.28571429 -0.00000000  0.28571429       0.006
   0.42857143  0.00000000  0.28571429       0.006
  -0.42857143  0.00000000  0.28571429       0.006
  -0.28571429  0.00000000  0.28571429       0.006
  -0.14285714  0.00000000  0.28571429       0.006
  -0.00000000  0.14285714  0.28571429       0.006
   0.14285714  0.14285714  0.28571429       0.006
   0.28571429  0.14285714  0.28571429       0.006
   0.42857143  0.14285714  0.28571429       0.006
  -0.42857143  0.14285714  0.28571429       0.006
  -0.28571429  0.14285714  0.28571429       0.006
  -0.14285714  0.14285714  0.28571429       0.006
   0.00000000  0.28571429  0.28571429       0.006
   0.14285714  0.28571429  0.28571429       0.006
   0.28571429  0.28571429  0.28571429       0.006
   0.42857143  0.28571429  0.28571429       0.006
  -0.42857143  0.28571429  0.28571429       0.006
  -0.28571429  0.28571429  0.28571429       0.006
  -0.14285714  0.28571429  0.28571429       0.006
  -0.00000000  0.42857143  0.28571429       0.006
   0.14285714  0.42857143  0.28571429       0.006
   0.28571429  0.42857143  0.28571429       0.006
   0.42857143  0.42857143  0.28571429       0.006
  -0.42857143  0.42857143  0.28571429       0.006
  -0.28571429  0.42857143  0.28571429       0.006
  -0.14285714  0.42857143  0.28571429       0.006
   0.00000000 -0.42857143  0.28571429       0.006
   0.14285714 -0.42857143  0.28571429       0.006
   0.28571429 -0.42857143  0.28571429       0.006
   0.42857143 -0.42857143  0.28571429       0.006
  -0.42857143 -0.42857143  0.28571429       0.006
  -0.28571429 -0.42857143  0.28571429       0.006
  -0.14285714 -0.42857143  0.28571429       0.006
   0.00000000 -0.28571429  0.28571429       0.006
   0.14285714 -0.28571429  0.28571429       0.006
   0.28571429 -0.28571429  0.28571429       0.006
   0.42857143 -0.28571429  0.28571429       0.006
  -0.42857143 -0.28571429  0.28571429       0.006
  -0.28571429 -0.28571429  0.28571429       0.006
  -0.14285714 -0.28571429  0.28571429       0.006
   0.00000000 -0.14285714  0.28571429       0.006
   0.14285714 -0.14285714  0.28571429       0.006
   0.28571429 -0.14285714  0.28571429       0.006
   0.42857143 -0.14285714  0.28571429       0.006
  -0.42857143 -0.14285714  0.28571429       0.006
  -0.28571429 -0.14285714  0.28571429       0.006
  -0.14285714 -0.14285714  0.28571429       0.006
   0.00000000  0.00000000  0.42857143       0.006
   0.14285714 -0.00000000  0.42857143       0.006
   0.28571429 -0.00000000  0.42857143       0.006
   0.42857143 -0.00000000  0.42857143       0.006
  -0.42857143  0.00000000  0.42857143       0.006
  -0.28571429  0.00000000  0.42857143       0.006
  -0.14285714  0.00000000  0.42857143       0.006
   0.00000000  0.14285714  0.42857143       0.006
   0.14285714  0.14285714  0.42857143       0.006
   0.28571429  0.14285714  0.42857143       0.006
   0.42857143  0.14285714  0.42857143       0.006
  -0.42857143  0.14285714  0.42857143       0.006
  -0.28571429  0.14285714  0.42857143       0.006
  -0.14285714  0.14285714  0.42857143       0.006
   0.00000000  0.28571429  0.42857143       0.006
   0.14285714  0.28571429  0.42857143       0.006
   0.28571429  0.28571429  0.42857143       0.006
   0.42857143  0.28571429  0.42857143       0.006
  -0.42857143  0.28571429  0.42857143       0.006
  -0.28571429  0.28571429  0.42857143       0.006
  -0.14285714  0.28571429  0.42857143       0.006
   0.00000000  0.42857143  0.42857143       0.006
   0.14285714  0.42857143  0.42857143       0.006
   0.28571429  0.42857143  0.42857143       0.006
   0.42857143  0.42857143  0.42857143       0.006
  -0.42857143  0.42857143  0.42857143       0.006
  -0.28571429  0.42857143  0.42857143       0.006
  -0.14285714  0.42857143  0.42857143       0.006
   0.00000000 -0.42857143  0.42857143       0.006
   0.14285714 -0.42857143  0.42857143       0.006
   0.28571429 -0.42857143  0.42857143       0.006
   0.42857143 -0.42857143  0.42857143       0.006
  -0.42857143 -0.42857143  0.42857143       0.006
  -0.28571429 -0.42857143  0.42857143       0.006
  -0.14285714 -0.42857143  0.42857143       0.006
   0.00000000 -0.28571429  0.42857143       0.006
   0.14285714 -0.28571429  0.42857143       0.006
   0.28571429 -0.28571429  0.42857143       0.006
   0.42857143 -0.28571429  0.42857143       0.006
  -0.42857143 -0.28571429  0.42857143       0.006
  -0.28571429 -0.28571429  0.42857143       0.006
  -0.14285714 -0.28571429  0.42857143       0.006
   0.00000000 -0.14285714  0.42857143       0.006
   0.14285714 -0.14285714  0.42857143       0.006
   0.28571429 -0.14285714  0.42857143       0.006
   0.42857143 -0.14285714  0.42857143       0.006
  -0.42857143 -0.14285714  0.42857143       0.006
  -0.28571429 -0.14285714  0.42857143       0.006
  -0.14285714 -0.14285714  0.42857143       0.006
 
 position of ions in fractional coordinates (direct lattice) 
   0.33333344  0.66666674  0.16714454
   0.00000003  0.99999991  0.49946523
   0.66666644  0.33333309  0.83339509
   0.99999090  0.99997582  0.21507486
   0.66667610  0.33335835  0.11917749
   0.66665722  0.33330847  0.54743082
   0.33334258  0.66669116  0.45153095
   0.33332410  0.66664202  0.88134258
   0.00000920  0.00002444  0.78543844
 
 position of ions in cartesian coordinates  (Angst):
   0.00007099  1.63439720  4.17868785
  -1.41509966  2.45181105 12.48671295
   1.41563704  0.81786417 20.83494356
   1.41540524  2.45150870  5.37701216
   1.41534552  0.81729523  2.97950351
   1.41553244  0.81755123 13.68583668
   0.00017506  1.63470825 11.28834801
   0.00036270  1.63496742 22.03363879
   0.00030281  0.00075368 19.63596096
 


--------------------------------------------------------------------------------------------------------


 k-point  1 :   0.0000 0.0000 0.0000  plane waves:    7151
 k-point  2 :   0.1429-0.0000-0.0000  plane waves:    7255
 k-point  3 :   0.2857-0.0000-0.0000  plane waves:    7273
 k-point  4 :   0.4286-0.0000-0.0000  plane waves:    7318
 k-point  5 :  -0.0000 0.1429-0.0000  plane waves:    7255
 k-point  6 :   0.1429 0.1429-0.0000  plane waves:    7258
 k-point  7 :   0.2857 0.1429-0.0000  plane waves:    7296
 k-point  8 :   0.4286 0.1429-0.0000  plane waves:    7314
 k-point  9 :  -0.4286 0.1429 0.0000  plane waves:    7297
 k-point 10 :  -0.2857 0.1429 0.0000  plane waves:    7258
 k-point 11 :  -0.1429 0.1429-0.0000  plane waves:    7255
 k-point 12 :  -0.0000 0.2857-0.0000  plane waves:    7273
 k-point 13 :   0.1429 0.2857-0.0000  plane waves:    7296
 k-point 14 :   0.2857 0.2857-0.0000  plane waves:    7342
 k-point 15 :   0.4286 0.2857-0.0000  plane waves:    7342
 k-point 16 :  -0.4286 0.2857 0.0000  plane waves:    7296
 k-point 17 :  -0.2857 0.2857-0.0000  plane waves:    7273
 k-point 18 :  -0.1429 0.2857-0.0000  plane waves:    7258
 k-point 19 :   0.0000 0.4286-0.0000  plane waves:    7318
 k-point 20 :   0.1429 0.4286-0.0000  plane waves:    7314
 k-point 21 :   0.2857 0.4286-0.0000  plane waves:    7342
 k-point 22 :   0.4286 0.4286 0.0000  plane waves:    7314
 k-point 23 :  -0.4286 0.4286-0.0000  plane waves:    7318
 k-point 24 :  -0.2857 0.4286-0.0000  plane waves:    7297
 k-point 25 :  -0.1429 0.4286-0.0000  plane waves:    7297
 k-point 26 :   0.0000 0.0000 0.1429  plane waves:    7176
 k-point 27 :   0.1429-0.0000 0.1429  plane waves:    7259
 k-point 28 :   0.2857-0.0000 0.1429  plane waves:    7288
 k-point 29 :   0.4286-0.0000 0.1429  plane waves:    7313
 k-point 30 :  -0.4286 0.0000 0.1429  plane waves:    7313
 k-point 31 :  -0.2857 0.0000 0.1429  plane waves:    7288
 k-point 32 :  -0.1429 0.0000 0.1429  plane waves:    7259
 k-point 33 :   0.0000 0.1429 0.1429  plane waves:    7259
 k-point 34 :   0.1429 0.1429 0.1429  plane waves:    7271
 k-point 35 :   0.2857 0.1429 0.1429  plane waves:    7295
 k-point 36 :   0.4286 0.1429 0.1429  plane waves:    7304
 k-point 37 :  -0.4286 0.1429 0.1429  plane waves:    7296
 k-point 38 :  -0.2857 0.1429 0.1429  plane waves:    7271
 k-point 39 :  -0.1429 0.1429 0.1429  plane waves:    7259
 k-point 40 :   0.0000 0.2857 0.1429  plane waves:    7288
 k-point 41 :   0.1429 0.2857 0.1429  plane waves:    7295
 k-point 42 :   0.2857 0.2857 0.1429  plane waves:    7353
 k-point 43 :   0.4286 0.2857 0.1429  plane waves:    7353
 k-point 44 :  -0.4286 0.2857 0.1429  plane waves:    7295
 k-point 45 :  -0.2857 0.2857 0.1429  plane waves:    7288
 k-point 46 :  -0.1429 0.2857 0.1429  plane waves:    7271
 k-point 47 :   0.0000 0.4286 0.1429  plane waves:    7313
 k-point 48 :   0.1429 0.4286 0.1429  plane waves:    7304
 k-point 49 :   0.2857 0.4286 0.1429  plane waves:    7353
 k-point 50 :   0.4286 0.4286 0.1429  plane waves:    7304
 k-point 51 :  -0.4286 0.4286 0.1429  plane waves:    7313
 k-point 52 :  -0.2857 0.4286 0.1429  plane waves:    7296
 k-point 53 :  -0.1429 0.4286 0.1429  plane waves:    7295
 k-point 54 :   0.0000-0.4286 0.1429  plane waves:    7313
 k-point 55 :   0.1429-0.4286 0.1429  plane waves:    7296
 k-point 56 :   0.2857-0.4286 0.1429  plane waves:    7295
 k-point 57 :   0.4286-0.4286 0.1429  plane waves:    7313
 k-point 58 :  -0.4286-0.4286 0.1429  plane waves:    7304
 k-point 59 :  -0.2857-0.4286 0.1429  plane waves:    7353
 k-point 60 :  -0.1429-0.4286 0.1429  plane waves:    7304
 k-point 61 :   0.0000-0.2857 0.1429  plane waves:    7288
 k-point 62 :   0.1429-0.2857 0.1429  plane waves:    7271
 k-point 63 :   0.2857-0.2857 0.1429  plane waves:    7288
 k-point 64 :   0.4286-0.2857 0.1429  plane waves:    7296
 k-point 65 :  -0.4286-0.2857 0.1429  plane waves:    7353
 k-point 66 :  -0.2857-0.2857 0.1429  plane waves:    7353
 k-point 67 :  -0.1429-0.2857 0.1429  plane waves:    7295
 k-point 68 :   0.0000-0.1429 0.1429  plane waves:    7259
 k-point 69 :   0.1429-0.1429 0.1429  plane waves:    7259
 k-point 70 :   0.2857-0.1429 0.1429  plane waves:    7271
 k-point 71 :   0.4286-0.1429 0.1429  plane waves:    7295
 k-point 72 :  -0.4286-0.1429 0.1429  plane waves:    7304
 k-point 73 :  -0.2857-0.1429 0.1429  plane waves:    7295
 k-point 74 :  -0.1429-0.1429 0.1429  plane waves:    7271
 k-point 75 :   0.0000 0.0000 0.2857  plane waves:    7176
 k-point 76 :   0.1429-0.0000 0.2857  plane waves:    7258
 k-point 77 :   0.2857-0.0000 0.2857  plane waves:    7278
 k-point 78 :   0.4286 0.0000 0.2857  plane waves:    7307
 k-point 79 :  -0.4286 0.0000 0.2857  plane waves:    7307
 k-point 80 :  -0.2857 0.0000 0.2857  plane waves:    7279
 k-point 81 :  -0.1429 0.0000 0.2857  plane waves:    7258
 k-point 82 :  -0.0000 0.1429 0.2857  plane waves:    7258
 k-point 83 :   0.1429 0.1429 0.2857  plane waves:    7271
 k-point 84 :   0.2857 0.1429 0.2857  plane waves:    7298
 k-point 85 :   0.4286 0.1429 0.2857  plane waves:    7309
 k-point 86 :  -0.4286 0.1429 0.2857  plane waves:    7298
 k-point 87 :  -0.2857 0.1429 0.2857  plane waves:    7271
 k-point 88 :  -0.1429 0.1429 0.2857  plane waves:    7258
 k-point 89 :   0.0000 0.2857 0.2857  plane waves:    7278
 k-point 90 :   0.1429 0.2857 0.2857  plane waves:    7298
 k-point 91 :   0.2857 0.2857 0.2857  plane waves:    7352
 k-point 92 :   0.4286 0.2857 0.2857  plane waves:    7352
 k-point 93 :  -0.4286 0.2857 0.2857  plane waves:    7298
 k-point 94 :  -0.2857 0.2857 0.2857  plane waves:    7279
 k-point 95 :  -0.1429 0.2857 0.2857  plane waves:    7271
 k-point 96 :  -0.0000 0.4286 0.2857  plane waves:    7307
 k-point 97 :   0.1429 0.4286 0.2857  plane waves:    7309
 k-point 98 :   0.2857 0.4286 0.2857  plane waves:    7352
 k-point 99 :   0.4286 0.4286 0.2857  plane waves:    7309
 k-point ** :  -0.4286 0.4286 0.2857  plane waves:    7307
 k-point ** :  -0.2857 0.4286 0.2857  plane waves:    7298
 k-point ** :  -0.1429 0.4286 0.2857  plane waves:    7298
 k-point ** :   0.0000-0.4286 0.2857  plane waves:    7307
 k-point ** :   0.1429-0.4286 0.2857  plane waves:    7298
 k-point ** :   0.2857-0.4286 0.2857  plane waves:    7298
 k-point ** :   0.4286-0.4286 0.2857  plane waves:    7307
 k-point ** :  -0.4286-0.4286 0.2857  plane waves:    7309
 k-point ** :  -0.2857-0.4286 0.2857  plane waves:    7352
 k-point ** :  -0.1429-0.4286 0.2857  plane waves:    7309
 k-point ** :   0.0000-0.2857 0.2857  plane waves:    7279
 k-point ** :   0.1429-0.2857 0.2857  plane waves:    7271
 k-point ** :   0.2857-0.2857 0.2857  plane waves:    7279
 k-point ** :   0.4286-0.2857 0.2857  plane waves:    7298
 k-point ** :  -0.4286-0.2857 0.2857  plane waves:    7352
 k-point ** :  -0.2857-0.2857 0.2857  plane waves:    7352
 k-point ** :  -0.1429-0.2857 0.2857  plane waves:    7298
 k-point ** :   0.0000-0.1429 0.2857  plane waves:    7258
 k-point ** :   0.1429-0.1429 0.2857  plane waves:    7258
 k-point ** :   0.2857-0.1429 0.2857  plane waves:    7271
 k-point ** :   0.4286-0.1429 0.2857  plane waves:    7298
 k-point ** :  -0.4286-0.1429 0.2857  plane waves:    7309
 k-point ** :  -0.2857-0.1429 0.2857  plane waves:    7298
 k-point ** :  -0.1429-0.1429 0.2857  plane waves:    7271
 k-point ** :   0.0000 0.0000 0.4286  plane waves:    7182
 k-point ** :   0.1429-0.0000 0.4286  plane waves:    7253
 k-point ** :   0.2857-0.0000 0.4286  plane waves:    7274
 k-point ** :   0.4286-0.0000 0.4286  plane waves:    7316
 k-point ** :  -0.4286 0.0000 0.4286  plane waves:    7314
 k-point ** :  -0.2857 0.0000 0.4286  plane waves:    7274
 k-point ** :  -0.1429 0.0000 0.4286  plane waves:    7253
 k-point ** :   0.0000 0.1429 0.4286  plane waves:    7253
 k-point ** :   0.1429 0.1429 0.4286  plane waves:    7276
 k-point ** :   0.2857 0.1429 0.4286  plane waves:    7297
 k-point ** :   0.4286 0.1429 0.4286  plane waves:    7306
 k-point ** :  -0.4286 0.1429 0.4286  plane waves:    7297
 k-point ** :  -0.2857 0.1429 0.4286  plane waves:    7276
 k-point ** :  -0.1429 0.1429 0.4286  plane waves:    7253
 k-point ** :   0.0000 0.2857 0.4286  plane waves:    7274
 k-point ** :   0.1429 0.2857 0.4286  plane waves:    7297
 k-point ** :   0.2857 0.2857 0.4286  plane waves:    7355
 k-point ** :   0.4286 0.2857 0.4286  plane waves:    7355
 k-point ** :  -0.4286 0.2857 0.4286  plane waves:    7297
 k-point ** :  -0.2857 0.2857 0.4286  plane waves:    7274
 k-point ** :  -0.1429 0.2857 0.4286  plane waves:    7276
 k-point ** :   0.0000 0.4286 0.4286  plane waves:    7316
 k-point ** :   0.1429 0.4286 0.4286  plane waves:    7306
 k-point ** :   0.2857 0.4286 0.4286  plane waves:    7355
 k-point ** :   0.4286 0.4286 0.4286  plane waves:    7306
 k-point ** :  -0.4286 0.4286 0.4286  plane waves:    7314
 k-point ** :  -0.2857 0.4286 0.4286  plane waves:    7297
 k-point ** :  -0.1429 0.4286 0.4286  plane waves:    7297
 k-point ** :   0.0000-0.4286 0.4286  plane waves:    7314
 k-point ** :   0.1429-0.4286 0.4286  plane waves:    7297
 k-point ** :   0.2857-0.4286 0.4286  plane waves:    7297
 k-point ** :   0.4286-0.4286 0.4286  plane waves:    7314
 k-point ** :  -0.4286-0.4286 0.4286  plane waves:    7306
 k-point ** :  -0.2857-0.4286 0.4286  plane waves:    7355
 k-point ** :  -0.1429-0.4286 0.4286  plane waves:    7306
 k-point ** :   0.0000-0.2857 0.4286  plane waves:    7274
 k-point ** :   0.1429-0.2857 0.4286  plane waves:    7276
 k-point ** :   0.2857-0.2857 0.4286  plane waves:    7274
 k-point ** :   0.4286-0.2857 0.4286  plane waves:    7297
 k-point ** :  -0.4286-0.2857 0.4286  plane waves:    7355
 k-point ** :  -0.2857-0.2857 0.4286  plane waves:    7355
 k-point ** :  -0.1429-0.2857 0.4286  plane waves:    7297
 k-point ** :   0.0000-0.1429 0.4286  plane waves:    7253
 k-point ** :   0.1429-0.1429 0.4286  plane waves:    7253
 k-point ** :   0.2857-0.1429 0.4286  plane waves:    7276
 k-point ** :   0.4286-0.1429 0.4286  plane waves:    7297
 k-point ** :  -0.4286-0.1429 0.4286  plane waves:    7306
 k-point ** :  -0.2857-0.1429 0.4286  plane waves:    7297
 k-point ** :  -0.1429-0.1429 0.4286  plane waves:    7276

 maximum and minimum number of plane-waves per node :       949      880

 maximum number of plane-waves:      7355
 maximum index in each direction: 
   IXMAX=    6   IYMAX=    6   IZMAX=   53
   IXMIN=   -6   IYMIN=   -6   IZMIN=  -54


 parallel 3D FFT for wavefunctions:
    minimum data exchange during FFTs selected (reduces bandwidth)
 parallel 3D FFT for charge:
    minimum data exchange during FFTs selected (reduces bandwidth)


 total amount of memory used by VASP MPI-rank0   104953. kBytes
=======================================================================

   base      :      30000. kBytes
   nonl-proj :      46202. kBytes
   fftplans  :        631. kBytes
   grid      :       1639. kBytes
   one-center:         62. kBytes
   wavefun   :      26419. kBytes
 
     INWAV:  cpu time    0.0000: real time    0.0001
 Broyden mixing: mesh for mixing (old mesh)
   NGX = 13   NGY = 13   NGZ =107
  (NGX  = 36   NGY  = 36   NGZ  =324)
  gives a total of  18083 points

 initial charge density was supplied:
 charge density of overlapping atoms calculated
 number of electron      63.0000000 magnetization       9.0000000
 keeping initial charge density in first step


--------------------------------------------------------------------------------------------------------


 Maximum index for augmentation-charges          569 (set IRDMAX)


--------------------------------------------------------------------------------------------------------


 First call to EWALD:  gamma=   0.318
 Maximum number of real-space cells 6x 6x 1
 Maximum number of reciprocal cells 2x 2x11

    FEWALD:  cpu time    0.0015: real time    0.0015


--------------------------------------- Iteration      1(   1)  ---------------------------------------


    POTLOK:  cpu time    0.0220: real time    0.0227
    SETDIJ:  cpu time    0.0050: real time    0.0051
atom =   1  type =  1  l = 2
 
 onsite density matrix
 
spin component  1
 
  0.8242  0.0000  0.0000  0.0000  0.0000
  0.0000  0.8242  0.0000  0.0000  0.0000
  0.0000  0.0000  0.8242  0.0000  0.0000
  0.0000  0.0000  0.0000  0.8242  0.0000
  0.0000  0.0000  0.0000  0.0000  0.8242
 
spin component  2
 
  0.6594  0.0000  0.0000  0.0000  0.0000
  0.0000  0.6594  0.0000  0.0000  0.0000
  0.0000  0.0000  0.6594  0.0000  0.0000
  0.0000  0.0000  0.0000  0.6594  0.0000
  0.0000  0.0000  0.0000  0.0000  0.6594
 
 occupancies and eigenvectors
 
  o =  0.6594  v =  0.0000  0.0000  0.0000  0.0000  0.0000  1.0000  0.0000  0.0000  0.0000  0.0000      0.0000  0.0000  0.0000  0.0000  0.0000  0.0000  0.0000  0.0000  0.0000  0.0000
  o =  0.6594  v =  0.0000  0.0000  0.0000  0.0000  0.0000  0.0000  1.0000  0.0000  0.0000  0.0000      0.0000  0.0000  0.0000  0.0000  0.0000  0.0000  0.0000  0.0000  0.0000  0.0000
  o =  0.6594  v =  0.0000  0.0000  0.0000  0.0000  0.0000  0.0000  0.0000  1.0000  0.0000  0.0000      0.0000  0.0000  0.0000  0.0000  0.0000  0.0000  0.0000  0.0000  0.0000  0.0000
  o =  0.6594  v =  0.0000  0.0000  0.0000  0.0000  0.0000  0.0000  0.0000  0.0000  1.0000  0.0000      0.0000  0.0000  0.0000  0.0000  0.0000  0.0000  0.0000  0.0000  0.0000  0.0000
  o =  0.6594  v =  0.0000  0.0000  0.0000  0.0000  0.0000  0.0000  0.0000  0.0000  0.0000  1.0000      0.0000  0.0000  0.0000  0.0000  0.0000  0.0000  0.0000  0.0000  0.0000  0.0000
  o =  0.8242  v =  1.0000  0.0000  0.0000  0.0000  0.0000  0.0000  0.0000  0.0000  0.0000  0.0000      0.0000  0.0000  0.0000  0.0000  0.0000  0.0000  0.0000  0.0000  0.0000  0.0000
  o =  0.8242  v =  0.0000  1.0000  0.0000  0.0000  0.0000  0.0000  0.0000  0.0000  0.0000  0.0000      0.0000  0.0000  0.0000  0.0000  0.0000  0.0000  0.0000  0.0000  0.0000  0.0000
  o =  0.8242  v =  0.0000  0.0000  1.0000  0.0000  0.0000  0.0000  0.0000  0.0000  0.0000  0.0000      0.0000  0.0000  0.0000  0.0000  0.0000  0.0000  0.0000  0.0000  0.0000  0.0000
  o =  0.8242  v =  0.0000  0.0000  0.0000  1.0000  0.0000  0.0000  0.0000  0.0000  0.0000  0.0000      0.0000  0.0000  0.0000  0.0000  0.0000  0.0000  0.0000  0.0000  0.0000  0.0000
  o =  0.8242  v =  0.0000  0.0000  0.0000  0.0000  1.0000  0.0000  0.0000  0.0000  0.0000  0.0000      0.0000  0.0000  0.0000  0.0000  0.0000  0.0000  0.0000  0.0000  0.0000  0.0000
atom =   2  type =  1  l = 2
 
 onsite density matrix
 
spin component  1
 
  0.8242  0.0000  0.0000  0.0000  0.0000
  0.0000  0.8242  0.0000  0.0000  0.0000
  0.0000  0.0000  0.8242  0.0000  0.0000
  0.0000  0.0000  0.0000  0.8242  0.0000
  0.0000  0.0000  0.0000  0.0000  0.8242
 
spin component  2
 
  0.6594  0.0000  0.0000  0.0000  0.0000
  0.0000  0.6594  0.0000  0.0000  0.0000
  0.0000  0.0000  0.6594  0.0000  0.0000
  0.0000  0.0000  0.0000  0.6594  0.0000
  0.0000  0.0000  0.0000  0.0000  0.6594
 
 occupancies and eigenvectors
 
  o =  0.6594  v =  0.0000  0.0000  0.0000  0.0000  0.0000  1.0000  0.0000  0.0000  0.0000  0.0000      0.0000  0.0000  0.0000  0.0000  0.0000  0.0000  0.0000  0.0000  0.0000  0.0000
  o =  0.6594  v =  0.0000  0.0000  0.0000  0.0000  0.0000  0.0000  1.0000  0.0000  0.0000  0.0000      0.0000  0.0000  0.0000  0.0000  0.0000  0.0000  0.0000  0.0000  0.0000  0.0000
  o =  0.6594  v =  0.0000  0.0000  0.0000  0.0000  0.0000  0.0000  0.0000  1.0000  0.0000  0.0000      0.0000  0.0000  0.0000  0.0000  0.0000  0.0000  0.0000  0.0000  0.0000  0.0000
  o =  0.6594  v =  0.0000  0.0000  0.0000  0.0000  0.0000  0.0000  0.0000  0.0000  1.0000  0.0000      0.0000  0.0000  0.0000  0.0000  0.0000  0.0000  0.0000  0.0000  0.0000  0.0000
  o =  0.6594  v =  0.0000  0.0000  0.0000  0.0000  0.0000  0.0000  0.0000  0.0000  0.0000  1.0000      0.0000  0.0000  0.0000  0.0000  0.0000  0.0000  0.0000  0.0000  0.0000  0.0000
  o =  0.8242  v =  1.0000  0.0000  0.0000  0.0000  0.0000  0.0000  0.0000  0.0000  0.0000  0.0000      0.0000  0.0000  0.0000  0.0000  0.0000  0.0000  0.0000  0.0000  0.0000  0.0000
  o =  0.8242  v =  0.0000  1.0000  0.0000  0.0000  0.0000  0.0000  0.0000  0.0000  0.0000  0.0000      0.0000  0.0000  0.0000  0.0000  0.0000  0.0000  0.0000  0.0000  0.0000  0.0000
  o =  0.8242  v =  0.0000  0.0000  1.0000  0.0000  0.0000  0.0000  0.0000  0.0000  0.0000  0.0000      0.0000  0.0000  0.0000  0.0000  0.0000  0.0000  0.0000  0.0000  0.0000  0.0000
  o =  0.8242  v =  0.0000  0.0000  0.0000  1.0000  0.0000  0.0000  0.0000  0.0000  0.0000  0.0000      0.0000  0.0000  0.0000  0.0000  0.0000  0.0000  0.0000  0.0000  0.0000  0.0000
  o =  0.8242  v =  0.0000  0.0000  0.0000  0.0000  1.0000  0.0000  0.0000  0.0000  0.0000  0.0000      0.0000  0.0000  0.0000  0.0000  0.0000  0.0000  0.0000  0.0000  0.0000  0.0000
atom =   3  type =  1  l = 2
 
 onsite density matrix
 
spin component  1
 
  0.8242  0.0000  0.0000  0.0000  0.0000
  0.0000  0.8242  0.0000  0.0000  0.0000
  0.0000  0.0000  0.8242  0.0000  0.0000
  0.0000  0.0000  0.0000  0.8242  0.0000
  0.0000  0.0000  0.0000  0.0000  0.8242
 
spin component  2
 
  0.6594  0.0000  0.0000  0.0000  0.0000
  0.0000  0.6594  0.0000  0.0000  0.0000
  0.0000  0.0000  0.6594  0.0000  0.0000
  0.0000  0.0000  0.0000  0.6594  0.0000
  0.0000  0.0000  0.0000  0.0000  0.6594
 
 occupancies and eigenvectors
 
  o =  0.6594  v =  0.0000  0.0000  0.0000  0.0000  0.0000  1.0000  0.0000  0.0000  0.0000  0.0000      0.0000  0.0000  0.0000  0.0000  0.0000  0.0000  0.0000  0.0000  0.0000  0.0000
  o =  0.6594  v =  0.0000  0.0000  0.0000  0.0000  0.0000  0.0000  1.0000  0.0000  0.0000  0.0000      0.0000  0.0000  0.0000  0.0000  0.0000  0.0000  0.0000  0.0000  0.0000  0.0000
  o =  0.6594  v =  0.0000  0.0000  0.0000  0.0000  0.0000  0.0000  0.0000  1.0000  0.0000  0.0000      0.0000  0.0000  0.0000  0.0000  0.0000  0.0000  0.0000  0.0000  0.0000  0.0000
  o =  0.6594  v =  0.0000  0.0000  0.0000  0.0000  0.0000  0.0000  0.0000  0.0000  1.0000  0.0000      0.0000  0.0000  0.0000  0.0000  0.0000  0.0000  0.0000  0.0000  0.0000  0.0000
  o =  0.6594  v =  0.0000  0.0000  0.0000  0.0000  0.0000  0.0000  0.0000  0.0000  0.0000  1.0000      0.0000  0.0000  0.0000  0.0000  0.0000  0.0000  0.0000  0.0000  0.0000  0.0000
  o =  0.8242  v =  1.0000  0.0000  0.0000  0.0000  0.0000  0.0000  0.0000  0.0000  0.0000  0.0000      0.0000  0.0000  0.0000  0.0000  0.0000  0.0000  0.0000  0.0000  0.0000  0.0000
  o =  0.8242  v =  0.0000  1.0000  0.0000  0.0000  0.0000  0.0000  0.0000  0.0000  0.0000  0.0000      0.0000  0.0000  0.0000  0.0000  0.0000  0.0000  0.0000  0.0000  0.0000  0.0000
  o =  0.8242  v =  0.0000  0.0000  1.0000  0.0000  0.0000  0.0000  0.0000  0.0000  0.0000  0.0000      0.0000  0.0000  0.0000  0.0000  0.0000  0.0000  0.0000  0.0000  0.0000  0.0000
  o =  0.8242  v =  0.0000  0.0000  0.0000  1.0000  0.0000  0.0000  0.0000  0.0000  0.0000  0.0000      0.0000  0.0000  0.0000  0.0000  0.0000  0.0000  0.0000  0.0000  0.0000  0.0000
  o =  0.8242  v =  0.0000  0.0000  0.0000  0.0000  1.0000  0.0000  0.0000  0.0000  0.0000  0.0000      0.0000  0.0000  0.0000  0.0000  0.0000  0.0000  0.0000  0.0000  0.0000  0.0000
atom =   4  type =  2  l = 0
 
 onsite density matrix
 
spin component  1
 
  0.9555
 
spin component  2
 
  0.6825
 
 occupancies and eigenvectors
 
  o =  0.6825  v =  0.0000  1.0000      0.0000  0.0000
  o =  0.9555  v =  1.0000  0.0000      0.0000  0.0000
atom =   5  type =  2  l = 0
 
 onsite density matrix
 
spin component  1
 
  0.9555
 
spin component  2
 
  0.6825
 
 occupancies and eigenvectors
 
  o =  0.6825  v =  0.0000  1.0000      0.0000  0.0000
  o =  0.9555  v =  1.0000  0.0000      0.0000  0.0000
atom =   6  type =  2  l = 0
 
 onsite density matrix
 
spin component  1
 
  0.9555
 
spin component  2
 
  0.6825
 
 occupancies and eigenvectors
 
  o =  0.6825  v =  0.0000  1.0000      0.0000  0.0000
  o =  0.9555  v =  1.0000  0.0000      0.0000  0.0000
atom =   7  type =  2  l = 0
 
 onsite density matrix
 
spin component  1
 
  0.9555
 
spin component  2
 
  0.6825
 
 occupancies and eigenvectors
 
  o =  0.6825  v =  0.0000  1.0000      0.0000  0.0000
  o =  0.9555  v =  1.0000  0.0000      0.0000  0.0000
atom =   8  type =  2  l = 0
 
 onsite density matrix
 
spin component  1
 
  0.9555
 
spin component  2
 
  0.6825
 
 occupancies and eigenvectors
 
  o =  0.6825  v =  0.0000  1.0000      0.0000  0.0000
  o =  0.9555  v =  1.0000  0.0000      0.0000  0.0000
atom =   9  type =  2  l = 0
 
 onsite density matrix
 
spin component  1
 
  0.9555
 
spin component  2
 
  0.6825
 
 occupancies and eigenvectors
 
  o =  0.6825  v =  0.0000  1.0000      0.0000  0.0000
  o =  0.9555  v =  1.0000  0.0000      0.0000  0.0000
     EDDAV:  cpu time    8.1103: real time    8.1557
       DOS:  cpu time    0.0064: real time    0.0064
    --------------------------------------------
      LOOP:  cpu time    8.1437: real time    8.1899

 eigenvalue-minimisations  : 34400
 total energy-change (2. order) : 0.7272841E+03  (-0.3364603E+04)
 number of electron      63.0000000 magnetization       9.0000000
 augmentation part       63.0000000 magnetization       9.0000000

 Free energy of the ion-electron system (eV)
  ---------------------------------------------------
  alpha Z        PSCENC =       101.74114448
  Ewald energy   TEWEN  =       109.33860109
  -Hartree energ DENC   =     -4929.21885536
  -exchange      EXHF   =         0.00000000
  -V(xc)+E(xc)   XCENC  =       212.58396946
  PAW double counting   =      4241.13348991    -4378.37140273
  entropy T*S    EENTRO =        -0.00461553
  eigenvalues    EBANDS =       335.76433540
  atomic energy  EATOM  =      5034.31740865
  Solvation  Ediel_sol  =         0.00000000
  ---------------------------------------------------
  free energy    TOTEN  =       727.28407537 eV

  energy without entropy =      727.28869090  energy(sigma->0) =      727.28638313


--------------------------------------------------------------------------------------------------------




--------------------------------------- Iteration      1(   2)  ---------------------------------------


     EDDAV:  cpu time    8.4006: real time    8.4494
       DOS:  cpu time    0.0072: real time    0.0072
    --------------------------------------------
      LOOP:  cpu time    8.4077: real time    8.4566

 eigenvalue-minimisations  : 38390
 total energy-change (2. order) :-0.6727291E+03  (-0.5962042E+03)
 number of electron      63.0000000 magnetization       9.0000000
 augmentation part       63.0000000 magnetization       9.0000000

 Free energy of the ion-electron system (eV)
  ---------------------------------------------------
  alpha Z        PSCENC =       101.74114448
  Ewald energy   TEWEN  =       109.33860109
  -Hartree energ DENC   =     -4929.21885536
  -exchange      EXHF   =         0.00000000
  -V(xc)+E(xc)   XCENC  =       212.58396946
  PAW double counting   =      4241.13348991    -4378.37140273
  entropy T*S    EENTRO =        -0.01054123
  eigenvalues    EBANDS =      -336.95879731
  atomic energy  EATOM  =      5034.31740865
  Solvation  Ediel_sol  =         0.00000000
  ---------------------------------------------------
  free energy    TOTEN  =        54.55501695 eV

  energy without entropy =       54.56555818  energy(sigma->0) =       54.56028757


--------------------------------------------------------------------------------------------------------




--------------------------------------- Iteration      1(   3)  ---------------------------------------


     EDDAV:  cpu time    8.9764: real time    9.0213
       DOS:  cpu time    0.0073: real time    0.0074
    --------------------------------------------
      LOOP:  cpu time    8.9837: real time    9.0286

 eigenvalue-minimisations  : 40870
 total energy-change (2. order) :-0.1134308E+03  (-0.1085406E+03)
 number of electron      63.0000000 magnetization       9.0000000
 augmentation part       63.0000000 magnetization       9.0000000

 Free energy of the ion-electron system (eV)
  ---------------------------------------------------
  alpha Z        PSCENC =       101.74114448
  Ewald energy   TEWEN  =       109.33860109
  -Hartree energ DENC   =     -4929.21885536
  -exchange      EXHF   =         0.00000000
  -V(xc)+E(xc)   XCENC  =       212.58396946
  PAW double counting   =      4241.13348991    -4378.37140273
  entropy T*S    EENTRO =        -0.02529867
  eigenvalues    EBANDS =      -450.37479591
  atomic energy  EATOM  =      5034.31740865
  Solvation  Ediel_sol  =         0.00000000
  ---------------------------------------------------
  free energy    TOTEN  =       -58.87573908 eV

  energy without entropy =      -58.85044041  energy(sigma->0) =      -58.86308975


--------------------------------------------------------------------------------------------------------




--------------------------------------- Iteration      1(   4)  ---------------------------------------


[...]
     28      -3.0355      1.00000
     29      -3.0196      1.00000
     30      -2.2632      0.00000
     31      -0.9043      0.00000
     32      -0.6922      0.00000
     33      -0.6350      0.00000
     34      -0.4518      0.00000
     35      -0.4291      0.00000
     36      -0.4049      0.00000
     37      -0.1027      0.00000
     38       0.5042      0.00000
     39       1.5955      0.00000
     40       7.5522      0.00000
     41       7.7611      0.00000
     42       8.0766      0.00000
     43      10.8082      0.00000
     44      11.0909      0.00000
     45      11.4583      0.00000
     46      11.8701      0.00000
     47      12.2594      0.00000
     48      12.5557      0.00000
     49      12.6310      0.00000
     50      13.0600      0.00000

 k-point   172 :      -0.1429   -0.1429    0.4286
  band No.  band energies     occupation 
      1     -20.3211      1.00000
      2     -20.1534      1.00000
      3     -19.8876      1.00000
      4     -19.5086      1.00000
      5     -19.3997      1.00000
      6     -19.2024      1.00000
      7      -8.1988      1.00000
      8      -6.6324      1.00000
      9      -6.4758      1.00000
     10      -6.3999      1.00000
     11      -6.2984      1.00000
     12      -6.0654      1.00000
     13      -5.8455      1.00000
     14      -5.6312      1.00000
     15      -5.5632      1.00000
     16      -5.5325      1.00000
     17      -5.2857      1.00000
     18      -5.2310      1.00000
     19      -5.0793      1.00000
     20      -4.9458      1.00000
     21      -4.3424      1.00000
     22      -3.9319      1.00000
     23      -3.7921      1.00000
     24      -3.7629      1.00000
     25      -3.7039      1.00000
     26      -3.5760      1.00000
     27      -3.3586      1.00000
     28      -3.1153      1.00000
     29      -2.9572      1.00000
     30      -2.0263      0.00000
     31      -0.8253      0.00000
     32      -0.6946      0.00000
     33      -0.6267      0.00000
     34      -0.5385      0.00000
     35      -0.5152      0.00000
     36      -0.3622      0.00000
     37      -0.3265      0.00000
     38       0.1822      0.00000
     39       1.6023      0.00000
     40       6.2599      0.00000
     41       6.5002      0.00000
     42       6.8242      0.00000
     43      10.0249      0.00000
     44      10.4678      0.00000
     45      10.8811      0.00000
     46      11.6663      0.00000
     47      11.9730      0.00000
     48      12.3089      0.00000
     49      12.9898      0.00000
     50      13.4505      0.00000


--------------------------------------------------------------------------------------------------------


 soft charge-density along one line, spin component           1
         0         1         2         3         4         5         6         7         8         9
 total charge-density along one line
 
 soft charge-density along one line, spin component           2
         0         1         2         3         4         5         6         7         8         9
 total charge-density along one line
 
 pseudopotential strength for first ion, spin component:           1
-11.187  -0.009  -0.002   0.139  -0.002 -11.498  -0.009  -0.002
 -0.009 -11.271   0.007  -0.016   0.072  -0.009 -11.573   0.007
 -0.002   0.007 -12.242   0.000  -0.004  -0.002   0.007 -12.527
  0.139  -0.016   0.000 -11.154  -0.009   0.148  -0.016   0.000
 -0.002   0.072  -0.004  -0.009 -11.198  -0.002   0.082  -0.004
-11.498  -0.009  -0.002   0.148  -0.002 -11.777  -0.008  -0.002
 -0.009 -11.573   0.007  -0.016   0.082  -0.008 -11.841   0.006
 -0.002   0.007 -12.527   0.000  -0.004  -0.002   0.006 -12.784
  0.148  -0.016   0.000 -11.455  -0.009   0.160  -0.016   0.000
 -0.002   0.082  -0.004  -0.009 -11.512  -0.002   0.094  -0.004
 -0.000  -0.006   0.074   0.002  -0.001  -0.000  -0.006   0.072
 -0.000  -0.011   0.133   0.003  -0.001  -0.000  -0.011   0.129
 -0.000  -0.004   0.000   0.000   0.001  -0.000  -0.004   0.000
  0.000  -0.000  -0.005  -0.000   0.000   0.000  -0.000  -0.005
  0.000   0.000   0.000  -0.004  -0.000   0.000   0.000   0.000
 -0.000  -0.003   0.000   0.000   0.001  -0.000  -0.003   0.000
  0.000  -0.000  -0.004  -0.000   0.000   0.000  -0.000  -0.004
  0.001   0.000   0.000  -0.003  -0.000   0.001   0.000   0.000
 pseudopotential strength for first ion, spin component:           2
 -8.548   0.009  -0.004   0.796  -0.017  -8.918   0.009  -0.004
  0.009  -8.936  -0.005   0.014   0.878   0.009  -9.296  -0.005
 -0.004  -0.005  -6.728  -0.002   0.028  -0.004  -0.005  -7.080
  0.796   0.014  -0.002  -9.008   0.010   0.802   0.014  -0.002
 -0.017   0.878   0.028   0.010  -8.681  -0.017   0.883   0.028
 -8.918   0.009  -0.004   0.802  -0.017  -9.242   0.009  -0.004
  0.009  -9.296  -0.005   0.014   0.883   0.009  -9.610  -0.006
 -0.004  -0.005  -7.080  -0.002   0.028  -0.004  -0.006  -7.369
  0.802   0.014  -0.002  -9.366   0.010   0.815   0.014  -0.002
 -0.017   0.883   0.028   0.010  -9.051  -0.018   0.897   0.028
 -0.001   0.004   0.014  -0.001   0.004  -0.001   0.004   0.011
 -0.002   0.007   0.024  -0.002   0.008  -0.002   0.007   0.019
 -0.000  -0.008  -0.000   0.000  -0.001  -0.000  -0.008  -0.000
  0.000   0.000  -0.007  -0.000  -0.000   0.000   0.000  -0.007
 -0.001   0.000   0.000  -0.008  -0.000  -0.001   0.000   0.000
 -0.000  -0.009  -0.000   0.000  -0.001  -0.000  -0.009  -0.000
  0.000   0.000  -0.008  -0.000  -0.000   0.000   0.000  -0.008
 -0.001   0.000   0.000  -0.009  -0.000  -0.001   0.000   0.000
 total augmentation occupancy for first ion, spin component:           1
  5.939   0.021   0.005  -2.268   0.023  -3.801  -0.018  -0.003   1.007  -0.015   0.002  -0.001   0.000   0.000  -0.005  -0.000
  0.021   5.310   0.025   0.005  -2.124  -0.013  -3.614  -0.015  -0.008   0.715   0.008  -0.003   0.011  -0.000  -0.000  -0.010
  0.005   0.025   5.450  -0.001  -0.021  -0.003  -0.016  -3.547   0.001   0.007   0.021  -0.004   0.000   0.023  -0.000  -0.000
 -2.268   0.005  -0.001   5.237   0.020   0.806  -0.007   0.001  -3.535  -0.013  -0.001   0.000  -0.000   0.000   0.010   0.000
  0.023  -2.124  -0.021   0.020   6.076  -0.015   0.887   0.009  -0.017  -3.892  -0.006   0.003  -0.006  -0.000   0.000   0.003
 -3.801  -0.013  -0.003   0.806  -0.015   3.343   0.011   0.001   0.015   0.011  -0.001   0.000  -0.000  -0.000   0.007   0.000
 -0.018  -3.614  -0.016  -0.007   0.887   0.011   3.480   0.011   0.008   0.089  -0.005   0.001  -0.006   0.000   0.000   0.003
 -0.003  -0.015  -3.547   0.001   0.009   0.001   0.011   2.785  -0.000  -0.002  -0.067   0.024  -0.000  -0.019   0.000   0.000
  1.007  -0.008   0.001  -3.535  -0.017   0.015   0.008  -0.000   3.402   0.011   0.001  -0.000   0.000  -0.000  -0.006  -0.000
 -0.015   0.715   0.007  -0.013  -3.892   0.011   0.089  -0.002   0.011   3.411   0.003  -0.001   0.007   0.000  -0.000  -0.003
  0.002   0.008   0.021  -0.001  -0.006  -0.001  -0.005  -0.067   0.001   0.003   1.785  -0.257   0.000  -0.010  -0.000  -0.000
 -0.001  -0.003  -0.004   0.000   0.003   0.000   0.001   0.024  -0.000  -0.001  -0.257   0.072  -0.000   0.002   0.000   0.000
  0.000   0.011   0.000  -0.000  -0.006  -0.000  -0.006  -0.000   0.000   0.007   0.000  -0.000   0.344  -0.000  -0.000  -0.048
  0.000  -0.000   0.023   0.000  -0.000  -0.000   0.000  -0.019  -0.000   0.000  -0.010   0.002  -0.000   0.327  -0.000  -0.000
 -0.005  -0.000  -0.000   0.010   0.000   0.007   0.000   0.000  -0.006  -0.000  -0.000   0.000  -0.000  -0.000   0.344  -0.000
 -0.000  -0.010  -0.000   0.000   0.003   0.000   0.003   0.000  -0.000  -0.003  -0.000   0.000  -0.048  -0.000  -0.000   0.009
  0.000   0.000  -0.011  -0.000   0.000  -0.000   0.000   0.006   0.000   0.000  -0.000  -0.000  -0.000  -0.044   0.000   0.000
  0.003   0.000   0.000  -0.010  -0.000  -0.003  -0.000  -0.000   0.003   0.000  -0.000   0.000  -0.000   0.000  -0.048   0.000
 total augmentation occupancy for first ion, spin component:           2
  1.953   0.020  -0.001   0.337  -0.018  -1.129  -0.012  -0.000  -0.018   0.011  -0.003   0.001   0.000   0.000  -0.020  -0.000
  0.020   0.854  -0.020   0.047   0.486  -0.018  -0.217   0.009  -0.032   0.024   0.002   0.004  -0.029  -0.000   0.000  -0.002
 -0.001  -0.020   5.113   0.005   0.027  -0.001   0.012  -2.987  -0.004  -0.012  -0.108   0.015   0.000   0.014  -0.000  -0.000
  0.337   0.047   0.005   0.512   0.022   0.155  -0.033  -0.003   0.022  -0.019   0.001  -0.001   0.000   0.000  -0.029  -0.000
 -0.018   0.486   0.027   0.022   1.819   0.010  -0.110  -0.016  -0.013  -1.051   0.010  -0.004  -0.020  -0.000   0.000  -0.002
 -1.129  -0.018  -0.001   0.155   0.010   0.555   0.011   0.001  -0.266  -0.005   0.002  -0.001  -0.000  -0.000   0.013   0.000
 -0.012  -0.217   0.012  -0.033  -0.110   0.011  -0.217  -0.005   0.023  -0.183  -0.002  -0.002   0.020   0.000  -0.000   0.001
 -0.000   0.009  -2.987  -0.003  -0.016   0.001  -0.005   1.815   0.002   0.008   0.068  -0.002  -0.000  -0.009   0.000   0.000
 -0.018  -0.032  -0.004   0.022  -0.013  -0.266   0.023   0.002  -0.388   0.012   0.000   0.001  -0.000  -0.000   0.020   0.000
  0.011   0.024  -0.012  -0.019  -1.051  -0.005  -0.183   0.008   0.012   0.516  -0.005   0.002   0.013   0.000  -0.000   0.001
 -0.003   0.002  -0.108   0.001   0.010   0.002  -0.002   0.068   0.000  -0.005  -0.181   0.071  -0.000  -0.005  -0.000   0.000
  0.001   0.004   0.015  -0.001  -0.004  -0.001  -0.002  -0.002   0.001   0.002   0.071  -0.008   0.000  -0.002   0.000  -0.000
  0.000  -0.029   0.000   0.000  -0.020  -0.000   0.020  -0.000  -0.000   0.013  -0.000   0.000  -0.006   0.000  -0.000   0.005
  0.000  -0.000   0.014   0.000  -0.000  -0.000   0.000  -0.009  -0.000   0.000  -0.005  -0.002   0.000  -0.005  -0.000   0.000
 -0.020   0.000  -0.000  -0.029   0.000   0.013  -0.000   0.000   0.020  -0.000  -0.000   0.000  -0.000  -0.000  -0.006   0.000
 -0.000  -0.002  -0.000  -0.000  -0.002   0.000   0.001   0.000   0.000   0.001   0.000  -0.000   0.005   0.000   0.000  -0.001
  0.000   0.000  -0.010  -0.000  -0.000  -0.000  -0.000   0.005   0.000   0.000  -0.000   0.000   0.000   0.004  -0.000  -0.000
 -0.002  -0.000   0.000  -0.002  -0.000   0.000   0.000  -0.000   0.000   0.000  -0.000   0.000   0.000  -0.000   0.004  -0.000


------------------------ aborting loop because EDIFF is reached ----------------------------------------


 


 total charge     
 
# of ion       s       p       d       tot
------------------------------------------
    1        0.367   0.511   7.195   8.072
    2        0.363   0.506   7.413   8.282
    3        0.364   0.507   6.261   7.131
    4        1.595   3.293   0.000   4.888
    5        1.597   3.211   0.000   4.808
    6        1.596   3.520   0.000   5.116
    7        1.599   3.366   0.000   4.965
    8        1.596   3.294   0.000   4.890
    9        1.598   3.166   0.000   4.764
--------------------------------------------------
tot         10.674  21.373  20.869  52.916
 


 magnetization (x)
 
# of ion       s       p       d       tot
------------------------------------------
    1        0.010   0.006   1.649   1.665
    2        0.007   0.003   1.824   1.834
    3        0.013   0.011   2.102   2.126
    4        0.003  -0.133   0.000  -0.130
    5       -0.002  -0.322   0.000  -0.324
    6        0.008   0.131   0.000   0.139
    7        0.002  -0.168   0.000  -0.166
    8        0.003  -0.004   0.000  -0.001
    9       -0.003  -0.228   0.000  -0.231
--------------------------------------------------
tot          0.041  -0.704   5.576   4.912
 
    CHARGE:  cpu time    0.1629: real time    0.1633
    FORLOC:  cpu time    0.0006: real time    0.0006
    FORNL :  cpu time    1.5434: real time    1.5470
    STRESS:  cpu time    2.3573: real time    2.3629
    FORCOR:  cpu time    0.0149: real time    0.0150
    FORHAR:  cpu time    0.0023: real time    0.0023
    MIXING:  cpu time    0.0033: real time    0.0033
    OFIELD:  cpu time    0.0000: real time    0.0000

  FORCE on cell =-STRESS in cart. coord.  units (eV):
  Direction    XX          YY          ZZ          XY          YZ          ZX
  --------------------------------------------------------------------------------------
  Alpha Z   101.74114   101.74114   101.74114
  Ewald    2981.55479  2981.62350 -5853.84305    -0.05032     0.37257     0.13764
  Hartree  4266.91085  4266.76660 -3582.78400     0.15124     1.32086     0.55834
  E(xc)    -311.37928  -311.51976  -310.58969     0.03331    -0.06510    -0.04369
  Local   -8346.89432 -8348.31944  8264.92442    -0.38182    -4.66673    -1.94019
  n-local  -148.62798  -150.00630  -147.98759     0.17632    -1.70325    -0.14536
  augment   511.10764   514.12544   489.42686    -0.39335     4.06118     1.10766
  Kinetic  1013.85005  1013.04308  1001.32254     0.81572     2.52943     0.58164
  Fock        0.00000     0.00000     0.00000     0.00000     0.00000     0.00000
  -------------------------------------------------------------------------------------
  Total      68.26290    67.45426   -37.78937     0.35111     1.84896     0.25603
  in kB     630.47193   623.00339  -349.02034     3.24279    17.07685     2.36469
  external pressure =      301.48 kB  Pullay stress =        0.00 kB


 VOLUME and BASIS-vectors are now :
 -----------------------------------------------------------------------------
  energy-cutoff  :      700.00
  volume of cell :      173.47
      direct lattice vectors                 reciprocal lattice vectors
     2.830609376  0.000007918  0.000058220     0.353280249  0.203966256 -0.000012808
    -1.415297856  2.451370092  0.000082320    -0.000001141  0.407934481 -0.000014413
     0.000396423  0.000883287 25.000000000    -0.000000823 -0.000001818  0.040000000

  length of vectors
     2.830609377  2.830597703 25.000000019     0.407932799  0.407934481  0.040000000


 FORCES acting on ions
    electron-ion (+dipol)            ewald-force                    non-local-force                 convergence-correction
 -----------------------------------------------------------------------------------------------
   -.101E-01 0.240E-03 0.748E+02   0.938E-04 0.468E-03 -.689E+01   -.108E-01 0.420E-02 -.765E+00   0.223E-01 -.994E-02 -.666E+02
   -.250E-01 -.137E-01 -.426E+02   -.207E-03 -.398E-03 0.776E+01   0.163E-01 0.350E-01 -.531E+00   0.277E-01 0.712E-03 0.360E+02
   -.332E-01 -.897E-01 -.172E+02   0.961E-04 0.103E-03 -.867E+00   -.829E-02 -.859E-01 0.134E+00   0.621E-01 0.199E+00 0.182E+02
   0.389E-01 -.388E-01 -.554E+03   -.187E-01 -.319E-01 0.611E+03   0.944E-02 -.275E-01 -.276E+02   -.269E-01 0.875E-01 -.327E+02
   -.503E-01 0.336E-01 0.652E+03   0.189E-01 0.321E-01 -.620E+03   -.103E-01 0.283E-01 0.263E+02   0.399E-01 -.836E-01 -.550E+02
   0.407E-01 0.979E-01 -.668E+03   -.189E-01 -.322E-01 0.621E+03   -.641E-01 -.356E-01 -.284E+02   0.301E-01 -.242E-01 0.713E+02
   -.171E-01 -.655E-01 0.606E+03   0.187E-01 0.318E-01 -.610E+03   0.363E-01 0.104E-01 0.257E+02   -.431E-01 0.297E-02 -.184E+02
   -.320E+00 0.947E-01 -.548E+03   -.188E-01 -.320E-01 0.615E+03   0.323E+00 0.393E+00 -.288E+02   0.126E+00 -.359E+00 -.419E+02
   0.209E+00 0.867E-01 0.517E+03   0.188E-01 0.320E-01 -.616E+03   -.275E+00 -.381E+00 0.272E+02   -.638E-01 0.176E+00 0.743E+02
 -----------------------------------------------------------------------------------------------
   -.167E+00 0.105E+00 0.208E+02   0.525E-13 0.704E-14 0.114E-12   0.161E-01 -.590E-01 -.674E+01   0.175E+00 -.109E-01 -.148E+02
 
 
 POSITION                                       TOTAL-FORCE (eV/Angst)
 -----------------------------------------------------------------------------------
      0.00007      1.63440      4.17869        -0.000998     -0.008977      0.611926
     -1.41510      2.45181     12.48671         0.016198      0.017689      0.785744
      1.41564      0.81786     20.83494         0.018144      0.019418      0.283370
      1.41541      2.45151      5.37701         0.000162     -0.014517     -3.824655
      1.41535      0.81730      2.97950        -0.004341      0.006498      3.435292
      1.41553      0.81755     13.68584        -0.014809      0.001951     -4.144142
      0.00018      1.63471     11.28835        -0.007859     -0.024358      3.278057
      0.00036      1.63497     22.03364         0.107081      0.092923     -3.531740
      0.00030      0.00075     19.63596        -0.113578     -0.090626      3.106149
 -----------------------------------------------------------------------------------
    total drift:                                0.023497      0.035490     -0.758943
  FORCES: max atom, RMS     4.144169    2.936097
  Number: max atom                 6
  FORCE total and by dimension    8.808292    4.144142


--------------------------------------------------------------------------------------------------------



  FREE ENERGIE OF THE ION-ELECTRON SYSTEM (eV)
  ---------------------------------------------------
  free  energy   TOTEN  =       -44.08128576 eV

  energy  without entropy=      -44.07780564  energy(sigma->0) =      -44.07954570
 


--------------------------------------------------------------------------------------------------------


    POTLOK:  cpu time    0.0205: real time    0.0206


--------------------------------------------------------------------------------------------------------


 stress matrix after NEB project (eV)
     68.26290      0.35111      0.25603
      0.35111     67.45426      1.84896
      0.25603      1.84896    -37.78937
  FORCES: max atom, RMS     4.144169    2.936097
  FORCE total and by dimension    8.808292    4.144142
  Stress total and by dimension  103.175342   68.262896
 writing wavefunctions
     LOOP+:  cpu time  622.3377: real time  625.1780
    4ORBIT:  cpu time    0.0000: real time    0.0000
 


 total charge     
 
# of ion       s       p       d       tot
------------------------------------------
    1        0.367   0.511   7.195   8.072
    2        0.363   0.506   7.413   8.282
    3        0.364   0.507   6.261   7.131
    4        1.595   3.293   0.000   4.888
    5        1.597   3.211   0.000   4.808
    6        1.596   3.520   0.000   5.116
    7        1.599   3.366   0.000   4.965
    8        1.596   3.294   0.000   4.890
    9        1.598   3.166   0.000   4.764
--------------------------------------------------
tot         10.674  21.373  20.869  52.916
 


 magnetization (x)
 
# of ion       s       p       d       tot
------------------------------------------
    1        0.010   0.006   1.649   1.665
    2        0.007   0.003   1.824   1.834
    3        0.013   0.011   2.102   2.126
    4        0.003  -0.133   0.000  -0.130
    5       -0.002  -0.322   0.000  -0.324
    6        0.008   0.131   0.000   0.139
    7        0.002  -0.168   0.000  -0.166
    8        0.003  -0.004   0.000  -0.001
    9       -0.003  -0.228   0.000  -0.231
--------------------------------------------------
tot          0.041  -0.704   5.576   4.912
 

 total amount of memory used by VASP MPI-rank0   104953. kBytes
=======================================================================

   base      :      30000. kBytes
   nonl-proj :      46202. kBytes
   fftplans  :        631. kBytes
   grid      :       1639. kBytes
   one-center:         62. kBytes
   wavefun   :      26419. kBytes
 
  
  
 General timing and accounting informations for this job:
 ========================================================
  
                  Total CPU time used (sec):      639.484
                            User time (sec):      627.369
                          System time (sec):       12.115
                         Elapsed time (sec):      642.896
  
                   Maximum memory used (kb):      161928.
                   Average memory used (kb):           0.
  
                          Minor page faults:       456669
                          Major page faults:            0
                 Voluntary context switches:        20144
