<?xml version="1.0" encoding="ISO-8859-1"?>
<modeling>
 <generator>
  <i name="program" type="string">vasp </i>
  <i name="version" type="string">5.4.4.18Apr17-6-g9f103f2a35  </i>
  <i name="subversion" type="string">(build Aug 30 2018 16:20:14) complex            parallel </i>
  <i name="platform" type="string">Iridis4-IntelMPI </i>
  <i name="date" type="string">2020 12 01 </i>
  <i name="time" type="string">16:30:11 </i>
 </generator>
 <incar>
  <i type="string" name="SYSTEM"> Li Mn O - used MP</i>
  <i type="string" name="PREC">accurate</i>
  <i type="string" name="ALGO"> Fast</i>
  <i type="int" name="NSIM">     4</i>
  <i type="int" name="ISPIN">     2</i>
  <i type="int" name="ICHARG">     1</i>
  <i type="int" name="NELM">   130</i>
  <i type="int" name="NELMIN">     3</i>
  <i type="int" name="IBRION">     1</i>
  <i name="EDIFF">      0.00000500</i>
  <i type="int" name="NSW">   200</i>
  <i type="int" name="ISIF">     3</i>
  <i name="ENCUT">    550.00000000</i>
  <v name="MAGMOM">      3.00000000      3.00000000      3.00000000      3.00000000      3.00000000      3.00000000      3.00000000      3.00000000      3.00000000      3.00000000      3.00000000      3.00000000      3.00000000      3.00000000      3.00000000      3.00000000      3.00000000      3.00000000      3.00000000      3.00000000
      3.00000000      3.00000000      3.00000000      3.00000000      3.00000000      3.00000000      3.00000000      3.00000000      3.00000000      3.00000000      3.00000000      3.00000000      3.00000000      3.00000000      3.00000000      3.00000000      3.00000000      3.00000000      3.00000000      3.00000000
      3.00000000      3.00000000      3.00000000      3.00000000      3.00000000      3.00000000      3.00000000      3.00000000      2.00000000      2.00000000      2.00000000      2.00000000      2.00000000      2.00000000      2.00000000      2.00000000      2.00000000      2.00000000      2.00000000      2.00000000
      2.00000000      2.00000000      2.00000000      2.00000000      2.00000000      2.00000000      2.00000000      2.00000000      2.00000000      2.00000000      2.00000000      2.00000000      2.00000000      2.00000000      2.00000000      2.00000000      2.00000000      2.00000000      2.00000000      2.00000000
      2.00000000      2.00000000      2.00000000      2.00000000      2.00000000      2.00000000      2.00000000      2.00000000      2.00000000      2.00000000      2.00000000      2.00000000      2.00000000      2.00000000      2.00000000      2.00000000      2.00000000      2.00000000      2.00000000      2.00000000
      2.00000000      2.00000000      2.00000000      2.00000000      2.00000000      2.00000000      2.00000000      2.00000000      2.00000000      2.00000000      2.00000000      2.00000000      2.00000000      2.00000000      2.00000000      2.00000000      2.00000000      2.00000000      2.00000000      2.00000000
      2.00000000      2.00000000      2.00000000      2.00000000      2.00000000      2.00000000      2.00000000      2.00000000      2.00000000      2.00000000      2.00000000      2.00000000      2.00000000      2.00000000      2.00000000      2.00000000      2.00000000      2.00000000      2.00000000      2.00000000
      2.00000000      2.00000000      2.00000000      2.00000000</v>
  <i type="string" name="LREAL"> Auto</i>
  <i type="logical" name="LPLANE"> T  </i>
  <i type="int" name="ISMEAR">     0</i>
  <i name="SIGMA">      0.05000000</i>
  <i type="int" name="LMAXMIX">     6</i>
  <i type="logical" name="LWAVE"> T  </i>
  <i type="logical" name="LSCALU"> F  </i>
  <v type="int" name="KPOINT_BSE">    -1     0     0     0</v>
  <i type="int" name="NELM">   130</i>
  <i type="logical" name="LDAU"> F  </i>
  <v type="int" name="LDAUTYPE">     2</v>
  <v type="int" name="LDAUL">     2     0</v>
  <v name="LDAUU">      3.32000000      0.00000000</v>
  <v name="LDAUJ">      0.00000000      0.00000000</v>
 </incar>
 <structure name="primitive_cell" >
  <crystal>
   <varray name="basis" >
    <v>       1.40930441       0.81366293       4.72132486 </v>
    <v>      -1.40930464       0.81366236       4.72132459 </v>
    <v>       0.00000023      -1.62732529       4.72132459 </v>
   </varray>
   <i name="volume">     32.48361410 </i>
   <varray name="rec_basis" >
    <v>       0.35478488       0.20483514       0.07060165 </v>
    <v>      -0.35478497       0.20483504       0.07060165 </v>
    <v>       0.00000008      -0.40967020       0.07060165 </v>
   </varray>
  </crystal>
  <varray name="positions" >
   <v>      -0.49999997       0.49999988      -0.49999991 </v>
   <v>      -0.23210452      -0.23210476      -0.23210475 </v>
   <v>       0.23210469       0.23210462       0.23210472 </v>
  </varray>
 </structure>
 <varray name="primitive_index" >
  <v type="int" >        1 </v>
  <v type="int" >       75 </v>
  <v type="int" >       53 </v>
 </varray>
 <kpoints>
  <generation param="Gamma">
   <v type="int" name="divisions">       1        1        1 </v>
   <v name="usershift">      0.00000000       0.00000000       0.00000000 </v>
   <v name="genvec1">      1.00000000      -0.00000000       0.00000000 </v>
   <v name="genvec2">      0.00000000       1.00000000       0.00000000 </v>
   <v name="genvec3">      0.00000000       0.00000000       1.00000000 </v>
   <v name="shift">      0.00000000       0.00000000       0.00000000 </v>
  </generation>
  <varray name="kpointlist" >
   <v>       0.00000000       0.00000000       0.00000000 </v>
  </varray>
  <varray name="weights" >
   <v>       1.00000000 </v>
  </varray>
 </kpoints>
 <parameters>
  <separator name="general" >
   <i type="string" name="SYSTEM">Li Mn O - used MP</i>
   <i type="logical" name="LCOMPAT"> F  </i>
  </separator>
  <separator name="electronic" >
   <i type="string" name="PREC">accura</i>
   <i name="ENMAX">    550.00000000</i>
   <i name="ENAUG">    605.39200000</i>
   <i name="EDIFF">      0.00000500</i>
   <i type="int" name="IALGO">    68</i>
   <i type="int" name="IWAVPR">    11</i>
   <i type="int" name="NBANDS">   717</i>
   <i name="NELECT">    912.00000000</i>
   <i type="int" name="TURBO">     0</i>
   <i type="int" name="IRESTART">     0</i>
   <i type="int" name="NREBOOT">     0</i>
   <i type="int" name="NMIN">     0</i>
   <i name="EREF">      0.00000000</i>
   <separator name="electronic smearing" >
    <i type="int" name="ISMEAR">     0</i>
    <i name="SIGMA">      0.05000000</i>
    <i name="KSPACING">      0.50000000</i>
    <i type="logical" name="KGAMMA"> T  </i>
   </separator>
   <separator name="electronic projectors" >
    <i type="logical" name="LREAL"> T  </i>
    <v name="ROPT">     -0.00025000     -0.00025000</v>
    <i type="int" name="LMAXPAW">  -100</i>
    <i type="int" name="LMAXMIX">     6</i>
    <i type="logical" name="NLSPLINE"> F  </i>
   </separator>
   <separator name="electronic startup" >
    <i type="int" name="ISTART">     0</i>
    <i type="int" name="ICHARG">     1</i>
    <i type="int" name="INIWAV">     1</i>
   </separator>
   <separator name="electronic spin" >
    <i type="int" name="ISPIN">     2</i>
    <i type="logical" name="LNONCOLLINEAR"> F  </i>
    <v name="MAGMOM">      3.00000000      3.00000000      3.00000000      3.00000000      3.00000000      3.00000000      3.00000000      3.00000000      3.00000000      3.00000000      3.00000000      3.00000000      3.00000000      3.00000000      3.00000000      3.00000000      3.00000000      3.00000000      3.00000000      3.00000000
      3.00000000      3.00000000      3.00000000      3.00000000      3.00000000      3.00000000      3.00000000      3.00000000      3.00000000      3.00000000      3.00000000      3.00000000      3.00000000      3.00000000      3.00000000      3.00000000      3.00000000      3.00000000      3.00000000      3.00000000
      3.00000000      3.00000000      3.00000000      3.00000000      3.00000000      3.00000000      3.00000000      3.00000000      2.00000000      2.00000000      2.00000000      2.00000000      2.00000000      2.00000000      2.00000000      2.00000000      2.00000000      2.00000000      2.00000000      2.00000000
      2.00000000      2.00000000      2.00000000      2.00000000      2.00000000      2.00000000      2.00000000      2.00000000      2.00000000      2.00000000      2.00000000      2.00000000      2.00000000      2.00000000      2.00000000      2.00000000      2.00000000      2.00000000      2.00000000      2.00000000
      2.00000000      2.00000000      2.00000000      2.00000000      2.00000000      2.00000000      2.00000000      2.00000000      2.00000000      2.00000000      2.00000000      2.00000000      2.00000000      2.00000000      2.00000000      2.00000000      2.00000000      2.00000000      2.00000000      2.00000000
      2.00000000      2.00000000      2.00000000      2.00000000      2.00000000      2.00000000      2.00000000      2.00000000      2.00000000      2.00000000      2.00000000      2.00000000      2.00000000      2.00000000      2.00000000      2.00000000      2.00000000      2.00000000      2.00000000      2.00000000
      2.00000000      2.00000000      2.00000000      2.00000000      2.00000000      2.00000000      2.00000000      2.00000000      2.00000000      2.00000000      2.00000000      2.00000000      2.00000000      2.00000000      2.00000000      2.00000000      2.00000000      2.00000000      2.00000000      2.00000000
      2.00000000      2.00000000      2.00000000      2.00000000</v>
    <i name="NUPDOWN">     -1.00000000</i>
    <i type="logical" name="LSORBIT"> F  </i>
    <v name="SAXIS">      0.00000000      0.00000000      1.00000000</v>
    <i type="logical" name="LSPIRAL"> F  </i>
    <v name="QSPIRAL">      0.00000000      0.00000000      0.00000000</v>
    <i type="logical" name="LZEROZ"> F  </i>
   </separator>
   <separator name="electronic exchange-correlation" >
    <i type="logical" name="LASPH"> F  </i>
    <i type="logical" name="LMETAGGA"> F  </i>
   </separator>
   <separator name="electronic convergence" >
    <i type="int" name="NELM">   130</i>
    <i type="int" name="NELMDL">    -5</i>
    <i type="int" name="NELMIN">     3</i>
    <i name="ENINI">    550.00000000</i>
    <separator name="electronic convergence detail" >
     <i type="logical" name="LDIAG"> T  </i>
     <i type="logical" name="LSUBROT"> F  </i>
     <i name="WEIMIN">      0.00100000</i>
     <i name="EBREAK">      0.00000000</i>
     <i name="DEPER">      0.30000000</i>
     <i type="int" name="NRMM">     4</i>
     <i name="TIME">      0.40000000</i>
    </separator>
   </separator>
   <separator name="electronic mixer" >
    <i name="AMIX">      0.40000000</i>
    <i name="BMIX">      1.00000000</i>
    <i name="AMIN">      0.10000000</i>
    <i name="AMIX_MAG">      1.60000000</i>
    <i name="BMIX_MAG">      1.00000000</i>
    <separator name="electronic mixer details" >
     <i type="int" name="IMIX">     4</i>
     <i type="logical" name="MIXFIRST"> F  </i>
     <i type="int" name="MAXMIX">   -45</i>
     <i name="WC">    100.00000000</i>
     <i type="int" name="INIMIX">     1</i>
     <i type="int" name="MIXPRE">     1</i>
     <i type="int" name="MREMOVE">     5</i>
    </separator>
   </separator>
   <separator name="electronic dipolcorrection" >
    <i type="logical" name="LDIPOL"> F  </i>
    <i type="logical" name="LMONO"> F  </i>
    <i type="int" name="IDIPOL">     0</i>
    <i name="EPSILON">      1.00000000</i>
    <v name="DIPOL">   -100.00000000   -100.00000000   -100.00000000</v>
    <i name="EFIELD">      0.00000000</i>
   </separator>
  </separator>
  <separator name="grids" >
   <i type="int" name="NGX">    90</i>
   <i type="int" name="NGY">    90</i>
   <i type="int" name="NGZ">   108</i>
   <i type="int" name="NGXF">   180</i>
   <i type="int" name="NGYF">   180</i>
   <i type="int" name="NGZF">   216</i>
   <i type="logical" name="ADDGRID"> F  </i>
  </separator>
  <separator name="ionic" >
   <i type="int" name="NSW">   200</i>
   <i type="int" name="IBRION">     1</i>
   <i type="int" name="MDALGO">     0</i>
   <i type="int" name="ISIF">     3</i>
   <i name="PSTRESS">      0.00000000</i>
   <i name="EDIFFG">      0.00005000</i>
   <i type="int" name="NFREE">     0</i>
   <i name="POTIM">      0.50000000</i>
   <i name="SMASS">     -3.00000000</i>
   <i name="SCALEE">      1.00000000</i>
  </separator>
  <separator name="ionic md" >
   <i name="TEBEG">      0.00010000</i>
   <i name="TEEND">      0.00010000</i>
   <i type="int" name="NBLOCK">     1</i>
   <i type="int" name="KBLOCK">   200</i>
   <i type="int" name="NPACO">   256</i>
   <i name="APACO">     16.00000000</i>
  </separator>
  <separator name="symmetry" >
   <i type="int" name="ISYM">     2</i>
   <i name="SYMPREC">      0.00001000</i>
  </separator>
  <separator name="dos" >
   <i type="int" name="LORBIT">     0</i>
   <v name="RWIGS">     -1.00000000     -1.00000000</v>
   <i type="int" name="NEDOS">   301</i>
   <i name="EMIN">     10.00000000</i>
   <i name="EMAX">    -10.00000000</i>
   <i name="EFERMI">      0.00000000</i>
  </separator>
  <separator name="writing" >
   <i type="int" name="NWRITE">     2</i>
   <i type="logical" name="LWAVE"> T  </i>
   <i type="logical" name="LDOWNSAMPLE"> F  </i>
   <i type="logical" name="LCHARG"> T  </i>
   <i type="logical" name="LPARD"> F  </i>
   <i type="logical" name="LVTOT"> F  </i>
   <i type="logical" name="LVHAR"> F  </i>
   <i type="logical" name="LELF"> F  </i>
   <i type="logical" name="LOPTICS"> F  </i>
   <v name="STM">      0.00000000      0.00000000      0.00000000      0.00000000      0.00000000      0.00000000      0.00000000</v>
  </separator>
  <separator name="performance" >
   <i type="int" name="NPAR">     3</i>
   <i type="int" name="NSIM">     4</i>
   <i type="int" name="NBLK">    -1</i>
   <i type="logical" name="LPLANE"> T  </i>
   <i type="logical" name="LSCALAPACK"> T  </i>
   <i type="logical" name="LSCAAWARE"> T  </i>
   <i type="logical" name="LSCALU"> F  </i>
   <i type="logical" name="LASYNC"> F  </i>
   <i type="logical" name="LORBITALREAL"> F  </i>
  </separator>
  <separator name="miscellaneous" >
   <i type="int" name="IDIOT">     3</i>
   <i type="int" name="ISPECIAL">     0</i>
   <i type="logical" name="LMUSIC"> F  </i>
   <v name="POMASS">     54.93800000     16.00000000</v>
   <v name="DARWINR">      0.00000000      0.00000000</v>
   <v name="DARWINV">      1.00000000      1.00000000</v>
   <i type="logical" name="LCORR"> T  </i>
  </separator>
  <i type="logical" name="GGA_COMPAT"> T  </i>
  <i type="logical" name="LBERRY"> F  </i>
  <i type="int" name="ICORELEVEL">     0</i>
  <i type="logical" name="LDAU"> F  </i>
  <i type="int" name="I_CONSTRAINED_M">     0</i>
  <separator name="electronic exchange-correlation" >
   <i type="string" name="GGA">--</i>
   <i type="int" name="VOSKOWN">     0</i>
   <i type="logical" name="LHFCALC"> F  </i>
   <i type="string" name="PRECFOCK"></i>
   <i type="logical" name="LSYMGRAD"> F  </i>
   <i type="logical" name="LHFONE"> F  </i>
   <i type="logical" name="LRHFCALC"> F  </i>
   <i type="logical" name="LTHOMAS"> F  </i>
   <i type="logical" name="LMODELHF"> F  </i>
   <i name="ENCUT4O">     -1.00000000</i>
   <i type="int" name="EXXOEP">     0</i>
   <i type="int" name="FOURORBIT">     0</i>
   <i name="AEXX">      0.00000000</i>
   <i name="HFALPHA">      0.00000000</i>
   <i name="MCALPHA">      0.00000000</i>
   <i name="ALDAX">      1.00000000</i>
   <i name="AGGAX">      1.00000000</i>
   <i name="ALDAC">      1.00000000</i>
   <i name="AGGAC">      1.00000000</i>
   <i type="int" name="NKREDX">     1</i>
   <i type="int" name="NKREDY">     1</i>
   <i type="int" name="NKREDZ">     1</i>
   <i type="logical" name="SHIFTRED"> F  </i>
   <i type="logical" name="ODDONLY"> F  </i>
   <i type="logical" name="EVENONLY"> F  </i>
   <i type="int" name="LMAXFOCK">     0</i>
   <i type="int" name="NMAXFOCKAE">     0</i>
   <i type="logical" name="LFOCKAEDFT"> F  </i>
   <i name="HFSCREEN">      0.00000000</i>
   <i name="HFSCREENC">      0.00000000</i>
   <i type="int" name="NBANDSGWLOW">     0</i>
  </separator>
  <separator name="vdW DFT" >
   <i type="logical" name="LUSE_VDW"> F  </i>
   <i name="Zab_VDW">     -0.84910000</i>
   <i name="PARAM1">      0.12340000</i>
   <i name="PARAM2">      1.00000000</i>
   <i name="PARAM3">      0.00000000</i>
  </separator>
  <separator name="model GW" >
   <i type="int" name="MODEL_GW">     0</i>
   <i name="MODEL_EPS0">      6.49672282</i>
   <i name="MODEL_ALPHA">      1.00000000</i>
  </separator>
  <separator name="linear response parameters" >
   <i type="logical" name="LEPSILON"> F  </i>
   <i type="logical" name="LRPA"> F  </i>
   <i type="logical" name="LNABLA"> F  </i>
   <i type="logical" name="LVEL"> F  </i>
   <i type="int" name="KINTER">     0</i>
   <i name="CSHIFT">      0.10000000</i>
   <i name="OMEGAMAX">     -1.00000000</i>
   <i name="DEG_THRESHOLD">      0.00200000</i>
   <i name="RTIME">     -0.10000000</i>
   <i name="WPLASMAI">      0.00000000</i>
   <v name="DFIELD">      0.00000000      0.00000000      0.00000000</v>
   <v name="WPLASMA">      0.00000000      0.00000000      0.00000000      0.00000000      0.00000000      0.00000000      0.00000000      0.00000000      0.00000000</v>
  </separator>
  <separator name="orbital magnetization" >
   <i type="logical" name="NUCIND"> F  </i>
   <v name="MAGPOS">      0.00000000      0.00000000      0.00000000</v>
   <i type="logical" name="LNICSALL"> T  </i>
   <i type="logical" name="ORBITALMAG"> F  </i>
   <i type="logical" name="LMAGBLOCH"> F  </i>
   <i type="logical" name="LCHIMAG"> F  </i>
   <i type="logical" name="LGAUGE"> T  </i>
   <i type="int" name="MAGATOM">     0</i>
   <v name="MAGDIPOL">      0.00000000      0.00000000      0.00000000</v>
   <v name="AVECCONST">      0.00000000      0.00000000      0.00000000</v>
  </separator>
  <separator name="response functions" >
   <i type="logical" name="LADDER"> F  </i>
   <i type="logical" name="LRPAFORCE"> F  </i>
   <i type="logical" name="LFXC"> F  </i>
   <i type="logical" name="LHARTREE"> T  </i>
   <i type="int" name="IBSE">     0</i>
   <v type="int" name="KPOINT">    -1     0     0     0</v>
   <i type="logical" name="LTCTE"> F  </i>
   <i type="logical" name="LTETE"> F  </i>
   <i type="logical" name="LTRIPLET"> F  </i>
   <i type="logical" name="LFXCEPS"> F  </i>
   <i type="logical" name="LFXHEG"> F  </i>
   <i type="int" name="NATURALO">     2</i>
   <i type="logical" name="L2ORDER"> F  </i>
   <i type="logical" name="LMP2LT"> F  </i>
   <i type="logical" name="LUSEW"> F  </i>
   <i name="ENCUTGW">     -2.00000000</i>
   <i name="ENCUTGWSOFT">     -2.00000000</i>
   <i name="ENCUTLF">     -1.00000000</i>
   <i type="int" name="LMAXMP2">    -1</i>
   <i name="SCISSOR">      0.00000000</i>
   <i type="int" name="NOMEGA">     0</i>
   <i type="int" name="NOMEGAR">     0</i>
   <i type="int" name="NBANDSGW">    -1</i>
   <i type="int" name="NBANDSO">    -1</i>
   <i type="int" name="NBANDSV">    -1</i>
   <i type="int" name="NELM">   130</i>
   <i type="int" name="NELMHF">     1</i>
   <i type="int" name="DIM">     3</i>
   <i type="int" name="ANTIRES">     0</i>
   <i name="OMEGAMAX">    -30.00000000</i>
   <i name="OMEGAMIN">    -30.00000000</i>
   <i name="OMEGATL">   -200.00000000</i>
   <i type="int" name="OMEGAGRID">   140</i>
   <i name="CSHIFT">     -0.10000000</i>
   <i type="logical" name="SELFENERGY"> F  </i>
   <i type="logical" name="LSPECTRAL"> F  </i>
   <i type="logical" name="LSPECTRALGW"> F  </i>
   <i type="logical" name="LSINGLES"> F  </i>
   <i type="logical" name="LFERMIGW"> F  </i>
   <i type="logical" name="ODDONLYGW"> F  </i>
   <i type="logical" name="EVENONLYGW"> F  </i>
   <i type="int" name="NKREDLFX">     1</i>
   <i type="int" name="NKREDLFY">     1</i>
   <i type="int" name="NKREDLFZ">     1</i>
   <i type="int" name="MAXMEM">  2800</i>
   <i type="int" name="TELESCOPE">     0</i>
   <i type="int" name="TAUPAR">     1</i>
   <i type="int" name="OMEGAPAR">    -1</i>
   <i name="LAMBDA">      1.00000000</i>
  </separator>
  <separator name="External order field" >
   <i name="OFIELD_KAPPA">      0.00000000</i>
   <v name="OFIELD_K">      0.00000000      0.00000000      0.00000000</v>
   <i name="OFIELD_Q6_NEAR">      0.00000000</i>
   <i name="OFIELD_Q6_FAR">      0.00000000</i>
   <i name="OFIELD_A">      0.00000000</i>
  </separator>
 </parameters>
 <atominfo>
  <atoms>     144 </atoms>
  <types>       2 </types>
  <array name="atoms" >
   <dimension dim="1">ion</dimension>
   <field type="string">element</field>
   <field type="int">atomtype</field>
   <set>
    <rc><c>Mn</c><c>   1</c></rc>
    <rc><c>Mn</c><c>   1</c></rc>
    <rc><c>Mn</c><c>   1</c></rc>
    <rc><c>Mn</c><c>   1</c></rc>
    <rc><c>Mn</c><c>   1</c></rc>
    <rc><c>Mn</c><c>   1</c></rc>
    <rc><c>Mn</c><c>   1</c></rc>
    <rc><c>Mn</c><c>   1</c></rc>
    <rc><c>Mn</c><c>   1</c></rc>
    <rc><c>Mn</c><c>   1</c></rc>
    <rc><c>Mn</c><c>   1</c></rc>
    <rc><c>Mn</c><c>   1</c></rc>
    <rc><c>Mn</c><c>   1</c></rc>
    <rc><c>Mn</c><c>   1</c></rc>
    <rc><c>Mn</c><c>   1</c></rc>
    <rc><c>Mn</c><c>   1</c></rc>
    <rc><c>Mn</c><c>   1</c></rc>
    <rc><c>Mn</c><c>   1</c></rc>
    <rc><c>Mn</c><c>   1</c></rc>
    <rc><c>Mn</c><c>   1</c></rc>
    <rc><c>Mn</c><c>   1</c></rc>
    <rc><c>Mn</c><c>   1</c></rc>
    <rc><c>Mn</c><c>   1</c></rc>
    <rc><c>Mn</c><c>   1</c></rc>
    <rc><c>Mn</c><c>   1</c></rc>
    <rc><c>Mn</c><c>   1</c></rc>
    <rc><c>Mn</c><c>   1</c></rc>
    <rc><c>Mn</c><c>   1</c></rc>
    <rc><c>Mn</c><c>   1</c></rc>
    <rc><c>Mn</c><c>   1</c></rc>
    <rc><c>Mn</c><c>   1</c></rc>
    <rc><c>Mn</c><c>   1</c></rc>
    <rc><c>Mn</c><c>   1</c></rc>
    <rc><c>Mn</c><c>   1</c></rc>
    <rc><c>Mn</c><c>   1</c></rc>
    <rc><c>Mn</c><c>   1</c></rc>
    <rc><c>Mn</c><c>   1</c></rc>
    <rc><c>Mn</c><c>   1</c></rc>
    <rc><c>Mn</c><c>   1</c></rc>
    <rc><c>Mn</c><c>   1</c></rc>
    <rc><c>Mn</c><c>   1</c></rc>
    <rc><c>Mn</c><c>   1</c></rc>
    <rc><c>Mn</c><c>   1</c></rc>
    <rc><c>Mn</c><c>   1</c></rc>
    <rc><c>Mn</c><c>   1</c></rc>
    <rc><c>Mn</c><c>   1</c></rc>
    <rc><c>Mn</c><c>   1</c></rc>
    <rc><c>Mn</c><c>   1</c></rc>
    <rc><c>O </c><c>   2</c></rc>
    <rc><c>O </c><c>   2</c></rc>
    <rc><c>O </c><c>   2</c></rc>
    <rc><c>O </c><c>   2</c></rc>
    <rc><c>O </c><c>   2</c></rc>
    <rc><c>O </c><c>   2</c></rc>
    <rc><c>O </c><c>   2</c></rc>
    <rc><c>O </c><c>   2</c></rc>
    <rc><c>O </c><c>   2</c></rc>
    <rc><c>O </c><c>   2</c></rc>
    <rc><c>O </c><c>   2</c></rc>
    <rc><c>O </c><c>   2</c></rc>
    <rc><c>O </c><c>   2</c></rc>
    <rc><c>O </c><c>   2</c></rc>
    <rc><c>O </c><c>   2</c></rc>
    <rc><c>O </c><c>   2</c></rc>
    <rc><c>O </c><c>   2</c></rc>
    <rc><c>O </c><c>   2</c></rc>
    <rc><c>O </c><c>   2</c></rc>
    <rc><c>O </c><c>   2</c></rc>
    <rc><c>O </c><c>   2</c></rc>
    <rc><c>O </c><c>   2</c></rc>
    <rc><c>O </c><c>   2</c></rc>
    <rc><c>O </c><c>   2</c></rc>
    <rc><c>O </c><c>   2</c></rc>
    <rc><c>O </c><c>   2</c></rc>
    <rc><c>O </c><c>   2</c></rc>
    <rc><c>O </c><c>   2</c></rc>
    <rc><c>O </c><c>   2</c></rc>
    <rc><c>O </c><c>   2</c></rc>
    <rc><c>O </c><c>   2</c></rc>
    <rc><c>O </c><c>   2</c></rc>
    <rc><c>O </c><c>   2</c></rc>
    <rc><c>O </c><c>   2</c></rc>
    <rc><c>O </c><c>   2</c></rc>
    <rc><c>O </c><c>   2</c></rc>
    <rc><c>O </c><c>   2</c></rc>
    <rc><c>O </c><c>   2</c></rc>
    <rc><c>O </c><c>   2</c></rc>
    <rc><c>O </c><c>   2</c></rc>
    <rc><c>O </c><c>   2</c></rc>
    <rc><c>O </c><c>   2</c></rc>
    <rc><c>O </c><c>   2</c></rc>
    <rc><c>O </c><c>   2</c></rc>
    <rc><c>O </c><c>   2</c></rc>
    <rc><c>O </c><c>   2</c></rc>
    <rc><c>O </c><c>   2</c></rc>
    <rc><c>O </c><c>   2</c></rc>
    <rc><c>O </c><c>   2</c></rc>
    <rc><c>O </c><c>   2</c></rc>
    <rc><c>O </c><c>   2</c></rc>
    <rc><c>O </c><c>   2</c></rc>
    <rc><c>O </c><c>   2</c></rc>
    <rc><c>O </c><c>   2</c></rc>
    <rc><c>O </c><c>   2</c></rc>
    <rc><c>O </c><c>   2</c></rc>
    <rc><c>O </c><c>   2</c></rc>
    <rc><c>O </c><c>   2</c></rc>
    <rc><c>O </c><c>   2</c></rc>
    <rc><c>O </c><c>   2</c></rc>
    <rc><c>O </c><c>   2</c></rc>
    <rc><c>O </c><c>   2</c></rc>
    <rc><c>O </c><c>   2</c></rc>
    <rc><c>O </c><c>   2</c></rc>
    <rc><c>O </c><c>   2</c></rc>
    <rc><c>O </c><c>   2</c></rc>
    <rc><c>O </c><c>   2</c></rc>
    <rc><c>O </c><c>   2</c></rc>
    <rc><c>O </c><c>   2</c></rc>
    <rc><c>O </c><c>   2</c></rc>
    <rc><c>O </c><c>   2</c></rc>
    <rc><c>O </c><c>   2</c></rc>
    <rc><c>O </c><c>   2</c></rc>
    <rc><c>O </c><c>   2</c></rc>
    <rc><c>O </c><c>   2</c></rc>
    <rc><c>O </c><c>   2</c></rc>
    <rc><c>O </c><c>   2</c></rc>
    <rc><c>O </c><c>   2</c></rc>
    <rc><c>O </c><c>   2</c></rc>
    <rc><c>O </c><c>   2</c></rc>
    <rc><c>O </c><c>   2</c></rc>
    <rc><c>O </c><c>   2</c></rc>
    <rc><c>O </c><c>   2</c></rc>
    <rc><c>O </c><c>   2</c></rc>
    <rc><c>O </c><c>   2</c></rc>
    <rc><c>O </c><c>   2</c></rc>
    <rc><c>O </c><c>   2</c></rc>
    <rc><c>O </c><c>   2</c></rc>
    <rc><c>O </c><c>   2</c></rc>
    <rc><c>O </c><c>   2</c></rc>
    <rc><c>O </c><c>   2</c></rc>
    <rc><c>O </c><c>   2</c></rc>
    <rc><c>O </c><c>   2</c></rc>
    <rc><c>O </c><c>   2</c></rc>
    <rc><c>O </c><c>   2</c></rc>
    <rc><c>O </c><c>   2</c></rc>
   </set>
  </array>
  <array name="atomtypes" >
   <dimension dim="1">type</dimension>
   <field type="int">atomspertype</field>
   <field type="string">element</field>
   <field>mass</field>
   <field>valence</field>
   <field type="string">pseudopotential</field>
   <set>
    <rc><c>  48</c><c>Mn</c><c>     54.93800000</c><c>      7.00000000</c><c>  PAW_PBE Mn 06Sep2000                  </c></rc>
    <rc><c>  96</c><c>O </c><c>     16.00000000</c><c>      6.00000000</c><c>  PAW_PBE O 08Apr2002                   </c></rc>
   </set>
  </array>
 </atominfo>
 <structure name="initialpos" >
  <crystal>
   <varray name="basis" >
    <v>      11.27443827       0.00000000       0.00000000 </v>
    <v>      -5.63721913       9.76394995       0.00000000 </v>
    <v>       0.00000000       0.00000000      14.16397404 </v>
   </varray>
   <i name="volume">   1559.21347679 </i>
   <varray name="rec_basis" >
    <v>       0.08869621       0.05120878       0.00000000 </v>
    <v>       0.00000000       0.10241757       0.00000000 </v>
    <v>       0.00000000       0.00000000       0.07060165 </v>
   </varray>
  </crystal>
  <varray name="positions" >
   <v>       0.08333334       0.16666667       0.16666667 </v>
   <v>       0.08333335       0.66666670       0.16666667 </v>
   <v>       0.58333334       0.16666667       0.16666667 </v>
   <v>       0.58333333       0.66666670       0.16666667 </v>
   <v>       0.08333333       0.41666669       0.16666667 </v>
   <v>       0.08333338       0.91666675       0.16666667 </v>
   <v>       0.58333330       0.41666669       0.16666667 </v>
   <v>       0.58333336       0.91666675       0.16666667 </v>
   <v>       0.33333334       0.16666667       0.16666667 </v>
   <v>       0.33333335       0.66666670       0.16666667 </v>
   <v>       0.83333334       0.16666667       0.16666667 </v>
   <v>       0.83333335       0.66666670       0.16666667 </v>
   <v>       0.33333332       0.41666669       0.16666667 </v>
   <v>       0.33333336       0.91666675       0.16666667 </v>
   <v>       0.83333326       0.41666669       0.16666667 </v>
   <v>       0.83333329       0.91666675       0.16666667 </v>
   <v>       0.25000000       0.25000000       0.50000000 </v>
   <v>       0.25000001       0.75000002       0.50000000 </v>
   <v>       0.75000000       0.25000000       0.50000000 </v>
   <v>       0.75000001       0.75000002       0.50000000 </v>
   <v>       0.25000000       0.00000000       0.50000000 </v>
   <v>       0.25000000       0.50000001       0.50000000 </v>
   <v>       0.75000000       0.00000000       0.50000000 </v>
   <v>       0.75000000       0.50000001       0.50000000 </v>
   <v>       0.00000000       0.25000000       0.50000000 </v>
   <v>       0.00000001       0.75000002       0.50000000 </v>
   <v>       0.50000000       0.25000000       0.50000000 </v>
   <v>       0.50000001       0.75000002       0.50000000 </v>
   <v>       0.00000000       0.00000000       0.50000000 </v>
   <v>       0.00000000       0.50000001       0.50000000 </v>
   <v>       0.50000000       0.00000000       0.50000000 </v>
   <v>       0.50000000       0.50000001       0.50000000 </v>
   <v>       0.16666667       0.08333334       0.83333331 </v>
   <v>       0.16666668       0.58333333       0.83333331 </v>
   <v>       0.66666667       0.08333334       0.83333331 </v>
   <v>       0.66666671       0.58333333       0.83333331 </v>
   <v>       0.16666667       0.33333335       0.83333331 </v>
   <v>       0.16666667       0.83333338       0.83333331 </v>
   <v>       0.66666667       0.33333335       0.83333331 </v>
   <v>       0.66666669       0.83333338       0.83333331 </v>
   <v>       0.41666667       0.08333334       0.83333331 </v>
   <v>       0.41666669       0.58333333       0.83333331 </v>
   <v>       0.91666671       0.08333334       0.83333331 </v>
   <v>       0.91666675       0.58333333       0.83333331 </v>
   <v>       0.41666667       0.33333335       0.83333331 </v>
   <v>       0.41666669       0.83333338       0.83333331 </v>
   <v>       0.91666676       0.33333335       0.83333331 </v>
   <v>       0.91666673       0.83333338       0.83333331 </v>
   <v>       0.00000000       0.00000000       0.23210467 </v>
   <v>       0.00000000       0.50000001       0.23210467 </v>
   <v>       0.50000000       0.00000000       0.23210467 </v>
   <v>       0.50000000       0.50000001       0.23210467 </v>
   <v>       0.00000000       0.25000000       0.23210467 </v>
   <v>       0.00000001       0.75000002       0.23210467 </v>
   <v>       0.50000000       0.25000000       0.23210467 </v>
   <v>       0.50000001       0.75000002       0.23210467 </v>
   <v>       0.25000000       0.00000000       0.23210467 </v>
   <v>       0.25000000       0.50000001       0.23210467 </v>
   <v>       0.75000000       0.00000000       0.23210467 </v>
   <v>       0.75000000       0.50000001       0.23210467 </v>
   <v>       0.25000000       0.25000000       0.23210467 </v>
   <v>       0.25000001       0.75000002       0.23210467 </v>
   <v>       0.75000000       0.25000000       0.23210467 </v>
   <v>       0.75000001       0.75000002       0.23210467 </v>
   <v>       0.16666667       0.08333334       0.10122865 </v>
   <v>       0.16666668       0.58333333       0.10122865 </v>
   <v>       0.66666667       0.08333334       0.10122865 </v>
   <v>       0.66666671       0.58333333       0.10122865 </v>
   <v>       0.16666667       0.33333335       0.10122865 </v>
   <v>       0.16666667       0.83333338       0.10122865 </v>
   <v>       0.66666667       0.33333335       0.10122865 </v>
   <v>       0.66666669       0.83333338       0.10122865 </v>
   <v>       0.41666667       0.08333334       0.10122865 </v>
   <v>       0.41666669       0.58333333       0.10122865 </v>
   <v>       0.91666671       0.08333334       0.10122865 </v>
   <v>       0.91666675       0.58333333       0.10122865 </v>
   <v>       0.41666667       0.33333335       0.10122865 </v>
   <v>       0.41666669       0.83333338       0.10122865 </v>
   <v>       0.91666676       0.33333335       0.10122865 </v>
   <v>       0.91666673       0.83333338       0.10122865 </v>
   <v>       0.16666667       0.08333334       0.56543800 </v>
   <v>       0.16666668       0.58333333       0.56543800 </v>
   <v>       0.66666667       0.08333334       0.56543800 </v>
   <v>       0.66666671       0.58333333       0.56543800 </v>
   <v>       0.16666667       0.33333335       0.56543800 </v>
   <v>       0.16666667       0.83333338       0.56543800 </v>
   <v>       0.66666667       0.33333335       0.56543800 </v>
   <v>       0.66666669       0.83333338       0.56543800 </v>
   <v>       0.41666667       0.08333334       0.56543800 </v>
   <v>       0.41666669       0.58333333       0.56543800 </v>
   <v>       0.91666671       0.08333334       0.56543800 </v>
   <v>       0.91666675       0.58333333       0.56543800 </v>
   <v>       0.41666667       0.33333335       0.56543800 </v>
   <v>       0.41666669       0.83333338       0.56543800 </v>
   <v>       0.91666676       0.33333335       0.56543800 </v>
   <v>       0.91666673       0.83333338       0.56543800 </v>
   <v>       0.08333334       0.16666667       0.43456203 </v>
   <v>       0.08333335       0.66666670       0.43456203 </v>
   <v>       0.58333334       0.16666667       0.43456203 </v>
   <v>       0.58333333       0.66666670       0.43456203 </v>
   <v>       0.08333333       0.41666669       0.43456203 </v>
   <v>       0.08333338       0.91666675       0.43456203 </v>
   <v>       0.58333330       0.41666669       0.43456203 </v>
   <v>       0.58333336       0.91666675       0.43456203 </v>
   <v>       0.33333334       0.16666667       0.43456203 </v>
   <v>       0.33333335       0.66666670       0.43456203 </v>
   <v>       0.83333334       0.16666667       0.43456203 </v>
   <v>       0.83333335       0.66666670       0.43456203 </v>
   <v>       0.33333332       0.41666669       0.43456203 </v>
   <v>       0.33333336       0.91666675       0.43456203 </v>
   <v>       0.83333326       0.41666669       0.43456203 </v>
   <v>       0.83333329       0.91666675       0.43456203 </v>
   <v>       0.08333334       0.16666667       0.89877138 </v>
   <v>       0.08333335       0.66666670       0.89877138 </v>
   <v>       0.58333334       0.16666667       0.89877138 </v>
   <v>       0.58333333       0.66666670       0.89877138 </v>
   <v>       0.08333333       0.41666669       0.89877138 </v>
   <v>       0.08333338       0.91666675       0.89877138 </v>
   <v>       0.58333330       0.41666669       0.89877138 </v>
   <v>       0.58333336       0.91666675       0.89877138 </v>
   <v>       0.33333334       0.16666667       0.89877138 </v>
   <v>       0.33333335       0.66666670       0.89877138 </v>
   <v>       0.83333334       0.16666667       0.89877138 </v>
   <v>       0.83333335       0.66666670       0.89877138 </v>
   <v>       0.33333332       0.41666669       0.89877138 </v>
   <v>       0.33333336       0.91666675       0.89877138 </v>
   <v>       0.83333326       0.41666669       0.89877138 </v>
   <v>       0.83333329       0.91666675       0.89877138 </v>
   <v>       0.00000000       0.00000000       0.76789531 </v>
   <v>       0.00000000       0.50000001       0.76789531 </v>
   <v>       0.50000000       0.00000000       0.76789531 </v>
   <v>       0.50000000       0.50000001       0.76789531 </v>
   <v>       0.00000000       0.25000000       0.76789531 </v>
   <v>       0.00000001       0.75000002       0.76789531 </v>
   <v>       0.50000000       0.25000000       0.76789531 </v>
   <v>       0.50000001       0.75000002       0.76789531 </v>
   <v>       0.25000000       0.00000000       0.76789531 </v>
   <v>       0.25000000       0.50000001       0.76789531 </v>
   <v>       0.75000000       0.00000000       0.76789531 </v>
   <v>       0.75000000       0.50000001       0.76789531 </v>
   <v>       0.25000000       0.25000000       0.76789531 </v>
   <v>       0.25000001       0.75000002       0.76789531 </v>
   <v>       0.75000000       0.25000000       0.76789531 </v>
   <v>       0.75000001       0.75000002       0.76789531 </v>
  </varray>
 </structure>
 <calculation>
  <scstep>
   <time name="dav">    6.99    7.04</time>
   <time name="total">    7.16    7.21</time>
   <energy>
    <i name="alphaZ">   3514.67868277 </i>
    <i name="ewald"> -43019.20627205 </i>
    <i name="hartreedc"> -21336.21822684 </i>
    <i name="XCdc">   2195.68230977 </i>
    <i name="pawpsdc">  52687.79143412 </i>
    <i name="pawaedc"> -52142.30495988 </i>
    <i name="eentropy">     -0.04286984 </i>
    <i name="bandstr">  10789.81964321 </i>
    <i name="atom">  61510.59341932 </i>
    <i name="e_fr_energy">  14200.79316057 </i>
    <i name="e_wo_entrp">  14200.83603042 </i>
    <i name="e_0_energy">  14200.81459549 </i>
   </energy>
  </scstep>
  <scstep>
   <time name="dav">    7.14    7.16</time>
   <time name="total">    7.14    7.16</time>
   <energy>
    <i name="e_fr_energy">   2106.46772142 </i>
    <i name="e_wo_entrp">   2106.54149594 </i>
    <i name="e_0_energy">   2106.50460868 </i>
   </energy>
  </scstep>
  <scstep>
   <time name="dav">    7.01    7.03</time>
   <time name="total">    7.01    7.03</time>
   <energy>
    <i name="e_fr_energy">   -872.37054696 </i>
    <i name="e_wo_entrp">   -872.36969392 </i>
    <i name="e_0_energy">   -872.37012044 </i>
   </energy>
  </scstep>
  <scstep>
   <time name="dav">    9.59    9.62</time>
   <time name="total">    9.59    9.62</time>
   <energy>
    <i name="e_fr_energy">  -1317.51198003 </i>
    <i name="e_wo_entrp">  -1317.51198003 </i>
    <i name="e_0_energy">  -1317.51198003 </i>
   </energy>
  </scstep>
  <scstep>
   <time name="dav">    9.60    9.63</time>
   <time name="total">   11.18   11.21</time>
   <energy>
    <i name="e_fr_energy">  -1328.45978229 </i>
    <i name="e_wo_entrp">  -1328.45978229 </i>
    <i name="e_0_energy">  -1328.45978229 </i>
   </energy>
  </scstep>
  <scstep>
   <time name="diag">    1.03    1.03</time>
   <time name="diis">    3.55    3.56</time>
   <time name="orth">    0.38    0.38</time>
   <time name="total">    6.74    6.76</time>
   <energy>
    <i name="e_fr_energy">   -836.32366051 </i>
    <i name="e_wo_entrp">   -836.23044661 </i>
    <i name="e_0_energy">   -836.27705356 </i>
   </energy>
  </scstep>
  <scstep>
   <time name="diag">    1.06    1.06</time>
   <time name="diis">    3.77    3.78</time>
   <time name="orth">    0.38    0.38</time>
   <time name="total">    6.93    6.95</time>
   <energy>
    <i name="e_fr_energy">   -670.10125963 </i>
    <i name="e_wo_entrp">   -670.10125963 </i>
    <i name="e_0_energy">   -670.10125963 </i>
   </energy>
  </scstep>
  <scstep>
   <time name="diag">    1.05    1.05</time>
   <time name="diis">    3.47    3.48</time>
   <time name="orth">    0.37    0.37</time>
   <time name="total">    6.62    6.64</time>
   <energy>
    <i name="e_fr_energy">   -816.04858613 </i>
    <i name="e_wo_entrp">   -816.04858613 </i>
    <i name="e_0_energy">   -816.04858613 </i>
   </energy>
  </scstep>
  <scstep>
   <time name="diag">    1.01    1.01</time>
   <time name="diis">    3.50    3.50</time>
   <time name="orth">    0.36    0.37</time>
   <time name="total">    6.60    6.62</time>
   <energy>
    <i name="e_fr_energy">   -934.23603156 </i>
    <i name="e_wo_entrp">   -934.23603156 </i>
    <i name="e_0_energy">   -934.23603156 </i>
   </energy>
  </scstep>
  <scstep>
   <time name="diag">    1.04    1.04</time>
   <time name="diis">    3.60    3.61</time>
   <time name="orth">    0.36    0.36</time>
   <time name="total">    6.75    6.77</time>
   <energy>
    <i name="e_fr_energy">  -1055.35797268 </i>
    <i name="e_wo_entrp">  -1055.35797268 </i>
    <i name="e_0_energy">  -1055.35797268 </i>
   </energy>
  </scstep>
  <scstep>
   <time name="diag">    1.03    1.03</time>
   <time name="diis">    3.70    3.71</time>
   <time name="orth">    0.40    0.40</time>
   <time name="total">    6.90    6.92</time>
   <energy>
    <i name="e_fr_energy">  -1120.76483327 </i>
    <i name="e_wo_entrp">  -1120.76483327 </i>
    <i name="e_0_energy">  -1120.76483327 </i>
   </energy>
  </scstep>
  <scstep>
   <time name="diag">    1.02    1.02</time>
   <time name="diis">    3.57    3.58</time>
   <time name="orth">    0.38    0.38</time>
   <time name="total">    6.73    6.75</time>
   <energy>
    <i name="e_fr_energy">  -1128.72011514 </i>
    <i name="e_wo_entrp">  -1128.72011514 </i>
    <i name="e_0_energy">  -1128.72011514 </i>
   </energy>
  </scstep>
  <scstep>
   <time name="diag">    1.04    1.04</time>
   <time name="diis">    3.61    3.62</time>
   <time name="orth">    0.39    0.39</time>
   <time name="total">    6.79    6.81</time>
   <energy>
    <i name="e_fr_energy">  -1130.59504809 </i>
    <i name="e_wo_entrp">  -1130.59504809 </i>
    <i name="e_0_energy">  -1130.59504809 </i>
   </energy>
  </scstep>
  <scstep>
   <time name="diag">    1.03    1.03</time>
   <time name="diis">    3.53    3.54</time>
   <time name="orth">    0.37    0.37</time>
   <time name="total">    6.68    6.70</time>
   <energy>
    <i name="e_fr_energy">  -1130.33813389 </i>
    <i name="e_wo_entrp">  -1130.33813389 </i>
    <i name="e_0_energy">  -1130.33813389 </i>
   </energy>
  </scstep>
  <scstep>
   <time name="diag">    1.02    1.02</time>
   <time name="diis">    3.56    3.57</time>
   <time name="orth">    0.36    0.36</time>
   <time name="total">    6.69    6.71</time>
   <energy>
    <i name="e_fr_energy">  -1130.31396501 </i>
    <i name="e_wo_entrp">  -1130.31396501 </i>
    <i name="e_0_energy">  -1130.31396501 </i>
   </energy>
  </scstep>
  <scstep>
   <time name="diag">    1.04    1.05</time>
   <time name="diis">    3.66    3.67</time>
   <time name="orth">    0.39    0.39</time>
   <time name="total">    6.86    6.88</time>
   <energy>
    <i name="e_fr_energy">  -1130.30829940 </i>
    <i name="e_wo_entrp">  -1130.30829940 </i>
    <i name="e_0_energy">  -1130.30829940 </i>
   </energy>
  </scstep>
  <scstep>
   <time name="diag">    1.03    1.04</time>
   <time name="diis">    3.68    3.68</time>
   <time name="orth">    0.38    0.38</time>
   <time name="total">    6.85    6.87</time>
   <energy>
    <i name="e_fr_energy">  -1130.31027011 </i>
    <i name="e_wo_entrp">  -1130.31027011 </i>
    <i name="e_0_energy">  -1130.31027011 </i>
   </energy>
  </scstep>
  <scstep>
   <time name="diag">    1.06    1.06</time>
   <time name="diis">    3.82    3.83</time>
   <time name="orth">    0.42    0.42</time>
   <time name="total">    7.04    7.07</time>
   <energy>
    <i name="e_fr_energy">  -1130.31207161 </i>
    <i name="e_wo_entrp">  -1130.31207161 </i>
    <i name="e_0_energy">  -1130.31207161 </i>
   </energy>
  </scstep>
  <scstep>
   <time name="diag">    1.04    1.04</time>
   <time name="diis">    3.70    3.71</time>
   <time name="orth">    0.36    0.36</time>
   <time name="total">    6.85    6.87</time>
   <energy>
    <i name="e_fr_energy">  -1130.31266815 </i>
    <i name="e_wo_entrp">  -1130.31266815 </i>
    <i name="e_0_energy">  -1130.31266815 </i>
   </energy>
  </scstep>
  <scstep>
   <time name="diag">    1.03    1.03</time>
   <time name="diis">    3.50    3.51</time>
   <time name="orth">    0.40    0.40</time>
   <time name="total">    6.67    6.69</time>
   <energy>
    <i name="e_fr_energy">  -1130.31260784 </i>
    <i name="e_wo_entrp">  -1130.31260784 </i>
    <i name="e_0_energy">  -1130.31260784 </i>
   </energy>
  </scstep>
  <scstep>
   <time name="diag">    1.01    1.01</time>
   <time name="diis">    3.47    3.48</time>
   <time name="orth">    0.36    0.37</time>
   <time name="total">    6.61    6.63</time>
   <energy>
    <i name="e_fr_energy">  -1130.31259973 </i>
    <i name="e_wo_entrp">  -1130.31259973 </i>
    <i name="e_0_energy">  -1130.31259973 </i>
   </energy>
  </scstep>
  <scstep>
   <time name="diag">    1.04    1.04</time>
   <time name="diis">    2.83    2.84</time>
   <time name="orth">    0.37    0.37</time>
   <time name="total">    4.40    4.42</time>
   <energy>
    <i name="alphaZ">   3514.67868277 </i>
    <i name="ewald"> -43019.20627205 </i>
    <i name="hartreedc"> -21663.95947621 </i>
    <i name="XCdc">   2243.75078098 </i>
    <i name="pawpsdc">  82424.75934998 </i>
    <i name="pawaedc"> -81989.91144052 </i>
    <i name="eentropy">     -0.00000000 </i>
    <i name="bandstr">  -4151.01764170 </i>
    <i name="atom">  61510.59341932 </i>
    <i name="e_fr_energy">  -1130.31259742 </i>
    <i name="e_wo_entrp">  -1130.31259742 </i>
    <i name="e_0_energy">  -1130.31259742 </i>
   </energy>
  </scstep>
  <structure>
   <crystal>
    <varray name="basis" >
     <v>      11.27443827       0.00000000       0.00000000 </v>
     <v>      -5.63721913       9.76394995       0.00000000 </v>
     <v>       0.00000000       0.00000000      14.16397404 </v>
    </varray>
    <i name="volume">   1559.21347679 </i>
    <varray name="rec_basis" >
     <v>       0.08869621       0.05120878       0.00000000 </v>
     <v>       0.00000000       0.10241757       0.00000000 </v>
     <v>       0.00000000       0.00000000       0.07060165 </v>
    </varray>
   </crystal>
   <varray name="positions" >
    <v>       0.08333334       0.16666667       0.16666667 </v>
    <v>       0.08333335       0.66666670       0.16666667 </v>
    <v>       0.58333334       0.16666667       0.16666667 </v>
    <v>       0.58333333       0.66666670       0.16666667 </v>
    <v>       0.08333333       0.41666669       0.16666667 </v>
    <v>       0.08333338       0.91666675       0.16666667 </v>
    <v>       0.58333330       0.41666669       0.16666667 </v>
    <v>       0.58333336       0.91666675       0.16666667 </v>
    <v>       0.33333334       0.16666667       0.16666667 </v>
    <v>       0.33333335       0.66666670       0.16666667 </v>
    <v>       0.83333334       0.16666667       0.16666667 </v>
    <v>       0.83333335       0.66666670       0.16666667 </v>
    <v>       0.33333332       0.41666669       0.16666667 </v>
    <v>       0.33333336       0.91666675       0.16666667 </v>
    <v>       0.83333326       0.41666669       0.16666667 </v>
    <v>       0.83333329       0.91666675       0.16666667 </v>
    <v>       0.25000000       0.25000000       0.50000000 </v>
    <v>       0.25000001       0.75000002       0.50000000 </v>
    <v>       0.75000000       0.25000000       0.50000000 </v>
    <v>       0.75000001       0.75000002       0.50000000 </v>
    <v>       0.25000000       0.00000000       0.50000000 </v>
    <v>       0.25000000       0.50000001       0.50000000 </v>
    <v>       0.75000000       0.00000000       0.50000000 </v>
    <v>       0.75000000       0.50000001       0.50000000 </v>
    <v>       0.00000000       0.25000000       0.50000000 </v>
    <v>       0.00000001       0.75000002       0.50000000 </v>
    <v>       0.50000000       0.25000000       0.50000000 </v>
    <v>       0.50000001       0.75000002       0.50000000 </v>
    <v>       0.00000000       0.00000000       0.50000000 </v>
    <v>       0.00000000       0.50000001       0.50000000 </v>
    <v>       0.50000000       0.00000000       0.50000000 </v>
    <v>       0.50000000       0.50000001       0.50000000 </v>
    <v>       0.16666667       0.08333334       0.83333331 </v>
    <v>       0.16666668       0.58333333       0.83333331 </v>
    <v>       0.66666667       0.08333334       0.83333331 </v>
    <v>       0.66666671       0.58333333       0.83333331 </v>
    <v>       0.16666667       0.33333335       0.83333331 </v>
    <v>       0.16666667       0.83333338       0.83333331 </v>
    <v>       0.66666667       0.33333335       0.83333331 </v>
    <v>       0.66666669       0.83333338       0.83333331 </v>
    <v>       0.41666667       0.08333334       0.83333331 </v>
    <v>       0.41666669       0.58333333       0.83333331 </v>
    <v>       0.91666671       0.08333334       0.83333331 </v>
    <v>       0.91666675       0.58333333       0.83333331 </v>
    <v>       0.41666667       0.33333335       0.83333331 </v>
    <v>       0.41666669       0.83333338       0.83333331 </v>
    <v>       0.91666676       0.33333335       0.83333331 </v>
    <v>       0.91666673       0.83333338       0.83333331 </v>
    <v>       0.00000000       0.00000000       0.23210467 </v>
    <v>       0.00000000       0.50000001       0.23210467 </v>
    <v>       0.50000000       0.00000000       0.23210467 </v>
    <v>       0.50000000       0.50000001       0.23210467 </v>
    <v>       0.00000000       0.25000000       0.23210467 </v>
    <v>       0.00000001       0.75000002       0.23210467 </v>
    <v>       0.50000000       0.25000000       0.23210467 </v>
    <v>       0.50000001       0.75000002       0.23210467 </v>
    <v>       0.25000000       0.00000000       0.23210467 </v>
    <v>       0.25000000       0.50000001       0.23210467 </v>
    <v>       0.75000000       0.00000000       0.23210467 </v>
    <v>       0.75000000       0.50000001       0.23210467 </v>
    <v>       0.25000000       0.25000000       0.23210467 </v>
    <v>       0.25000001       0.75000002       0.23210467 </v>
    <v>       0.75000000       0.25000000       0.23210467 </v>
    <v>       0.75000001       0.75000002       0.23210467 </v>
    <v>       0.16666667       0.08333334       0.10122865 </v>
    <v>       0.16666668       0.58333333       0.10122865 </v>
    <v>       0.66666667       0.08333334       0.10122865 </v>
    <v>       0.66666671       0.58333333       0.10122865 </v>
    <v>       0.16666667       0.33333335       0.10122865 </v>
    <v>       0.16666667       0.83333338       0.10122865 </v>
    <v>       0.66666667       0.33333335       0.10122865 </v>
    <v>       0.66666669       0.83333338       0.10122865 </v>
    <v>       0.41666667       0.08333334       0.10122865 </v>
    <v>       0.41666669       0.58333333       0.10122865 </v>
    <v>       0.91666671       0.08333334       0.10122865 </v>
    <v>       0.91666675       0.58333333       0.10122865 </v>
    <v>       0.41666667       0.33333335       0.10122865 </v>
    <v>       0.41666669       0.83333338       0.10122865 </v>
    <v>       0.91666676       0.33333335       0.10122865 </v>
    <v>       0.91666673       0.83333338       0.10122865 </v>
    <v>       0.16666667       0.08333334       0.56543800 </v>
    <v>       0.16666668       0.58333333       0.56543800 </v>
    <v>       0.66666667       0.08333334       0.56543800 </v>
    <v>       0.66666671       0.58333333       0.56543800 </v>
    <v>       0.16666667       0.33333335       0.56543800 </v>
    <v>       0.16666667       0.83333338       0.56543800 </v>
    <v>       0.66666667       0.33333335       0.56543800 </v>
    <v>       0.66666669       0.83333338       0.56543800 </v>
    <v>       0.41666667       0.08333334       0.56543800 </v>
    <v>       0.41666669       0.58333333       0.56543800 </v>
    <v>       0.91666671       0.08333334       0.56543800 </v>
    <v>       0.91666675       0.58333333       0.56543800 </v>
    <v>       0.41666667       0.33333335       0.56543800 </v>
    <v>       0.41666669       0.83333338       0.56543800 </v>
    <v>       0.91666676       0.33333335       0.56543800 </v>
    <v>       0.91666673       0.83333338       0.56543800 </v>
    <v>       0.08333334       0.16666667       0.43456203 </v>
    <v>       0.08333335       0.66666670       0.43456203 </v>
    <v>       0.58333334       0.16666667       0.43456203 </v>
    <v>       0.58333333       0.66666670       0.43456203 </v>
    <v>       0.08333333       0.41666669       0.43456203 </v>
    <v>       0.08333338       0.91666675       0.43456203 </v>
    <v>       0.58333330       0.41666669       0.43456203 </v>
    <v>       0.58333336       0.91666675       0.43456203 </v>
    <v>       0.33333334       0.16666667       0.43456203 </v>
    <v>       0.33333335       0.66666670       0.43456203 </v>
    <v>       0.83333334       0.16666667       0.43456203 </v>
    <v>       0.83333335       0.66666670       0.43456203 </v>
    <v>       0.33333332       0.41666669       0.43456203 </v>
    <v>       0.33333336       0.91666675       0.43456203 </v>
    <v>       0.83333326       0.41666669       0.43456203 </v>
    <v>       0.83333329       0.91666675       0.43456203 </v>
    <v>       0.08333334       0.16666667       0.89877138 </v>
    <v>       0.08333335       0.66666670       0.89877138 </v>
    <v>       0.58333334       0.16666667       0.89877138 </v>
    <v>       0.58333333       0.66666670       0.89877138 </v>
    <v>       0.08333333       0.41666669       0.89877138 </v>
    <v>       0.08333338       0.91666675       0.89877138 </v>
    <v>       0.58333330       0.41666669       0.89877138 </v>
    <v>       0.58333336       0.91666675       0.89877138 </v>
    <v>       0.33333334       0.16666667       0.89877138 </v>
    <v>       0.33333335       0.66666670       0.89877138 </v>
    <v>       0.83333334       0.16666667       0.89877138 </v>
    <v>       0.83333335       0.66666670       0.89877138 </v>
    <v>       0.33333332       0.41666669       0.89877138 </v>
    <v>       0.33333336       0.91666675       0.89877138 </v>
    <v>       0.83333326       0.41666669       0.89877138 </v>
    <v>       0.83333329       0.91666675       0.89877138 </v>
    <v>       0.00000000       0.00000000       0.76789531 </v>
    <v>       0.00000000       0.50000001       0.76789531 </v>
    <v>       0.50000000       0.00000000       0.76789531 </v>
    <v>       0.50000000       0.50000001       0.76789531 </v>
    <v>       0.00000000       0.25000000       0.76789531 </v>
    <v>       0.00000001       0.75000002       0.76789531 </v>
    <v>       0.50000000       0.25000000       0.76789531 </v>
    <v>       0.50000001       0.75000002       0.76789531 </v>
    <v>       0.25000000       0.00000000       0.76789531 </v>
    <v>       0.25000000       0.50000001       0.76789531 </v>
    <v>       0.75000000       0.00000000       0.76789531 </v>
    <v>       0.75000000       0.50000001       0.76789531 </v>
    <v>       0.25000000       0.25000000       0.76789531 </v>
    <v>       0.25000001       0.75000002       0.76789531 </v>
    <v>       0.75000000       0.25000000       0.76789531 </v>
    <v>       0.75000001       0.75000002       0.76789531 </v>
   </varray>
  </structure>
  <varray name="forces" >
   <v>       0.00000000       0.00000000      -0.00000000 </v>
   <v>       0.00000000      -0.00000000      -0.00000000 </v>
   <v>      -0.00000000       0.00000000      -0.00000000 </v>
   <v>      -0.00000000       0.00000000      -0.00000000 </v>
   <v>      -0.00000000      -0.00000000      -0.00000000 </v>
   <v>      -0.00000000       0.00000000      -0.00000000 </v>
   <v>      -0.00000000      -0.00000000      -0.00000000 </v>
   <v>      -0.00000000      -0.00000000      -0.00000000 </v>
   <v>       0.00000000      -0.00000000      -0.00000000 </v>
   <v>       0.00000000       0.00000000      -0.00000000 </v>
   <v>      -0.00000000       0.00000000      -0.00000000 </v>
   <v>      -0.00000000       0.00000000      -0.00000000 </v>
   <v>      -0.00000000      -0.00000000      -0.00000000 </v>
   <v>      -0.00000000       0.00000000      -0.00000000 </v>
   <v>       0.00000000       0.00000000      -0.00000000 </v>
   <v>       0.00000000       0.00000000      -0.00000000 </v>
   <v>       0.00000000       0.00000000      -0.00000000 </v>
   <v>       0.00000000      -0.00000000      -0.00000000 </v>
   <v>      -0.00000000       0.00000000      -0.00000000 </v>
   <v>      -0.00000000      -0.00000000      -0.00000000 </v>
   <v>      -0.00000000       0.00000000      -0.00000000 </v>
   <v>      -0.00000000       0.00000000      -0.00000000 </v>
   <v>      -0.00000000       0.00000000      -0.00000000 </v>
   <v>      -0.00000000      -0.00000000      -0.00000000 </v>
   <v>       0.00000000       0.00000000      -0.00000000 </v>
   <v>       0.00000000       0.00000000      -0.00000000 </v>
   <v>       0.00000000      -0.00000000      -0.00000000 </v>
   <v>      -0.00000000       0.00000000      -0.00000000 </v>
   <v>       0.00000000       0.00000000      -0.00000000 </v>
   <v>       0.00000000       0.00000000      -0.00000000 </v>
   <v>      -0.00000000       0.00000000      -0.00000000 </v>
   <v>      -0.00000000      -0.00000000      -0.00000000 </v>
   <v>       0.00000000       0.00000000      -0.00000000 </v>
   <v>       0.00000000       0.00000000      -0.00000000 </v>
   <v>       0.00000000       0.00000000      -0.00000000 </v>
   <v>      -0.00000000      -0.00000000      -0.00000000 </v>
   <v>      -0.00000000       0.00000000      -0.00000000 </v>
   <v>       0.00000000       0.00000000      -0.00000000 </v>
   <v>       0.00000000       0.00000000      -0.00000000 </v>
   <v>       0.00000000       0.00000000      -0.00000000 </v>
   <v>      -0.00000000       0.00000000      -0.00000000 </v>
   <v>      -0.00000000      -0.00000000      -0.00000000 </v>
   <v>       0.00000000      -0.00000000      -0.00000000 </v>
   <v>      -0.00000000       0.00000000      -0.00000000 </v>
   <v>      -0.00000000      -0.00000000      -0.00000000 </v>
   <v>      -0.00000000      -0.00000000      -0.00000000 </v>
   <v>      -0.00000000       0.00000000      -0.00000000 </v>
   <v>      -0.00000000       0.00000000      -0.00000000 </v>
   <v>       0.00000000       0.00000000       1.24041488 </v>
   <v>       0.00000000       0.00000000       1.24041488 </v>
   <v>       0.00000000      -0.00000000       1.24041488 </v>
   <v>       0.00000000       0.00000000       1.24041488 </v>
   <v>       0.00000000       0.00000000       1.24041488 </v>
   <v>       0.00000000      -0.00000000       1.24041488 </v>
   <v>       0.00000000       0.00000000       1.24041488 </v>
   <v>      -0.00000000       0.00000000       1.24041488 </v>
   <v>       0.00000000       0.00000000       1.24041488 </v>
   <v>      -0.00000000      -0.00000000       1.24041488 </v>
   <v>       0.00000000      -0.00000000       1.24041488 </v>
   <v>       0.00000000       0.00000000       1.24041488 </v>
   <v>       0.00000000       0.00000000       1.24041488 </v>
   <v>       0.00000000      -0.00000000       1.24041488 </v>
   <v>      -0.00000000       0.00000000       1.24041488 </v>
   <v>       0.00000000      -0.00000000       1.24041488 </v>
   <v>      -0.00000000      -0.00000000      -1.24041488 </v>
   <v>       0.00000000      -0.00000000      -1.24041488 </v>
   <v>       0.00000000       0.00000000      -1.24041488 </v>
   <v>      -0.00000000      -0.00000000      -1.24041488 </v>
   <v>       0.00000000      -0.00000000      -1.24041488 </v>
   <v>      -0.00000000      -0.00000000      -1.24041488 </v>
   <v>      -0.00000000      -0.00000000      -1.24041488 </v>
   <v>      -0.00000000       0.00000000      -1.24041488 </v>
   <v>      -0.00000000      -0.00000000      -1.24041488 </v>
   <v>       0.00000000      -0.00000000      -1.24041488 </v>
   <v>      -0.00000000       0.00000000      -1.24041488 </v>
   <v>      -0.00000000      -0.00000000      -1.24041488 </v>
   <v>       0.00000000      -0.00000000      -1.24041488 </v>
   <v>      -0.00000000       0.00000000      -1.24041488 </v>
   <v>      -0.00000000      -0.00000000      -1.24041488 </v>
   <v>      -0.00000000      -0.00000000      -1.24041488 </v>
   <v>       0.00000000       0.00000000       1.24041488 </v>
   <v>      -0.00000000       0.00000000       1.24041488 </v>
   <v>       0.00000000      -0.00000000       1.24041488 </v>
   <v>       0.00000000       0.00000000       1.24041488 </v>
   <v>       0.00000000       0.00000000       1.24041488 </v>
   <v>      -0.00000000       0.00000000       1.24041488 </v>
   <v>      -0.00000000       0.00000000       1.24041488 </v>
   <v>       0.00000000       0.00000000       1.24041488 </v>
   <v>       0.00000000      -0.00000000       1.24041488 </v>
   <v>      -0.00000000       0.00000000       1.24041488 </v>
   <v>       0.00000000      -0.00000000       1.24041488 </v>
   <v>       0.00000000       0.00000000       1.24041488 </v>
   <v>       0.00000000       0.00000000       1.24041488 </v>
   <v>       0.00000000      -0.00000000       1.24041488 </v>
   <v>      -0.00000000      -0.00000000       1.24041488 </v>
   <v>       0.00000000       0.00000000       1.24041488 </v>
   <v>      -0.00000000       0.00000000      -1.24041488 </v>
   <v>      -0.00000000      -0.00000000      -1.24041488 </v>
   <v>      -0.00000000      -0.00000000      -1.24041488 </v>
   <v>      -0.00000000      -0.00000000      -1.24041488 </v>
   <v>       0.00000000       0.00000000      -1.24041488 </v>
   <v>       0.00000000      -0.00000000      -1.24041488 </v>
   <v>       0.00000000       0.00000000      -1.24041488 </v>
   <v>      -0.00000000      -0.00000000      -1.24041488 </v>
   <v>      -0.00000000      -0.00000000      -1.24041488 </v>
   <v>       0.00000000       0.00000000      -1.24041488 </v>
   <v>      -0.00000000       0.00000000      -1.24041488 </v>
   <v>      -0.00000000      -0.00000000      -1.24041488 </v>
   <v>      -0.00000000      -0.00000000      -1.24041488 </v>
   <v>      -0.00000000      -0.00000000      -1.24041488 </v>
   <v>      -0.00000000       0.00000000      -1.24041488 </v>
   <v>      -0.00000000      -0.00000000      -1.24041488 </v>
   <v>       0.00000000      -0.00000000       1.24041488 </v>
   <v>       0.00000000       0.00000000       1.24041488 </v>
   <v>      -0.00000000       0.00000000       1.24041488 </v>
   <v>       0.00000000      -0.00000000       1.24041488 </v>
   <v>      -0.00000000      -0.00000000       1.24041488 </v>
   <v>      -0.00000000       0.00000000       1.24041488 </v>
   <v>       0.00000000       0.00000000       1.24041488 </v>
   <v>       0.00000000      -0.00000000       1.24041488 </v>
   <v>       0.00000000       0.00000000       1.24041488 </v>
   <v>      -0.00000000       0.00000000       1.24041488 </v>
   <v>       0.00000000       0.00000000       1.24041488 </v>
   <v>       0.00000000      -0.00000000       1.24041488 </v>
   <v>       0.00000000       0.00000000       1.24041488 </v>
   <v>       0.00000000      -0.00000000       1.24041488 </v>
   <v>       0.00000000       0.00000000       1.24041488 </v>
   <v>       0.00000000       0.00000000       1.24041488 </v>
   <v>      -0.00000000      -0.00000000      -1.24041488 </v>
   <v>      -0.00000000       0.00000000      -1.24041488 </v>
   <v>      -0.00000000      -0.00000000      -1.24041488 </v>
   <v>      -0.00000000      -0.00000000      -1.24041488 </v>
   <v>      -0.00000000       0.00000000      -1.24041488 </v>
   <v>      -0.00000000      -0.00000000      -1.24041488 </v>
   <v>      -0.00000000      -0.00000000      -1.24041488 </v>
   <v>      -0.00000000       0.00000000      -1.24041488 </v>
   <v>      -0.00000000      -0.00000000      -1.24041488 </v>
   <v>       0.00000000      -0.00000000      -1.24041488 </v>
   <v>      -0.00000000       0.00000000      -1.24041488 </v>
   <v>       0.00000000      -0.00000000      -1.24041488 </v>
   <v>      -0.00000000       0.00000000      -1.24041488 </v>
   <v>      -0.00000000      -0.00000000      -1.24041488 </v>
   <v>       0.00000000      -0.00000000      -1.24041488 </v>
   <v>      -0.00000000      -0.00000000      -1.24041488 </v>
  </varray>
  <varray name="stress" >
   <v>     191.74219379       0.00000000       0.00000000 </v>
   <v>       0.00000000     191.74219379       0.00000000 </v>
   <v>       0.00000000       0.00000000     124.07241849 </v>
  </varray>
  <energy>
   <i name="e_fr_energy">  -1130.31259742 </i>
   <i name="e_wo_entrp">  -1130.31259742 </i>
   <i name="e_0_energy">     -0.00000000 </i>
  </energy>
  <time name="totalsc">  177.98  178.53</time>
 </calculation>
 <calculation>
  <scstep>
   <time name="dav">    8.37    8.39</time>
   <time name="total">   10.13   10.16</time>
   <energy>
    <i name="alphaZ">   2992.22201507 </i>
    <i name="ewald"> -42753.64531330 </i>
    <i name="hartreedc"> -18887.77479663 </i>
    <i name="XCdc">   2046.37367411 </i>
    <i name="pawpsdc">  82424.28039339 </i>
    <i name="pawaedc"> -81989.42782217 </i>
    <i name="eentropy">     -0.00000000 </i>
    <i name="bandstr">  -6558.33853682 </i>
    <i name="atom">  61510.59341932 </i>
    <i name="e_fr_energy">  -1215.71696702 </i>
    <i name="e_wo_entrp">  -1215.71696702 </i>
    <i name="e_0_energy">  -1215.71696702 </i>
   </energy>
  </scstep>
  <scstep>
   <time name="diag">    1.04    1.04</time>
   <time name="diis">    3.49    3.50</time>
   <time name="orth">    0.36    0.36</time>
   <time name="total">    6.65    6.67</time>
   <energy>
    <i name="e_fr_energy">  -1130.74120364 </i>
    <i name="e_wo_entrp">  -1130.74120364 </i>
    <i name="e_0_energy">  -1130.74120364 </i>
   </energy>
  </scstep>
  <scstep>
   <time name="diag">    1.06    1.06</time>
   <time name="diis">    3.71    3.72</time>
   <time name="orth">    0.39    0.39</time>
   <time name="total">    6.94    6.96</time>
   <energy>
    <i name="e_fr_energy">  -1123.26476926 </i>
    <i name="e_wo_entrp">  -1123.26476926 </i>
    <i name="e_0_energy">  -1123.26476926 </i>
   </energy>
  </scstep>
  <scstep>
   <time name="diag">    1.04    1.04</time>
   <time name="diis">    3.82    3.83</time>
   <time name="orth">    0.40    0.40</time>
   <time name="total">    7.08    7.10</time>
   <energy>
    <i name="e_fr_energy">  -1122.90334033 </i>
    <i name="e_wo_entrp">  -1122.90334033 </i>
    <i name="e_0_energy">  -1122.90334033 </i>
   </energy>
  </scstep>
  <scstep>
   <time name="diag">    1.02    1.02</time>
   <time name="diis">    3.51    3.52</time>
   <time name="orth">    0.38    0.38</time>
   <time name="total">    6.68    6.70</time>
   <energy>
    <i name="e_fr_energy">  -1124.79417491 </i>
    <i name="e_wo_entrp">  -1124.79417491 </i>
    <i name="e_0_energy">  -1124.79417491 </i>
   </energy>
  </scstep>
  <scstep>
   <time name="diag">    1.03    1.03</time>
   <time name="diis">    3.40    3.40</time>
   <time name="orth">    0.38    0.38</time>
   <time name="total">    6.55    6.57</time>
   <energy>
    <i name="e_fr_energy">  -1121.50842343 </i>
    <i name="e_wo_entrp">  -1121.50842343 </i>
    <i name="e_0_energy">  -1121.50842343 </i>
   </energy>
  </scstep>
  <scstep>
   <time name="diag">    1.05    1.05</time>
   <time name="diis">    3.66    3.67</time>
   <time name="orth">    0.36    0.36</time>
   <time name="total">    6.85    6.87</time>
   <energy>
    <i name="e_fr_energy">  -1121.52626453 </i>
    <i name="e_wo_entrp">  -1121.52626453 </i>
    <i name="e_0_energy">  -1121.52626453 </i>
   </energy>
  </scstep>
  <scstep>
   <time name="diag">    1.05    1.05</time>
   <time name="diis">    3.79    3.80</time>
   <time name="orth">    0.38    0.39</time>
   <time name="total">    7.00    7.02</time>
   <energy>
    <i name="e_fr_energy">  -1121.52585064 </i>
    <i name="e_wo_entrp">  -1121.52585064 </i>
    <i name="e_0_energy">  -1121.52585064 </i>
   </energy>
  </scstep>
  <scstep>
   <time name="diag">    1.06    1.06</time>
   <time name="diis">    3.72    3.73</time>
   <time name="orth">    0.36    0.36</time>
   <time name="total">    6.89    6.91</time>
   <energy>
    <i name="e_fr_energy">  -1121.52505524 </i>
    <i name="e_wo_entrp">  -1121.52505524 </i>
    <i name="e_0_energy">  -1121.52505524 </i>
   </energy>
  </scstep>
  <scstep>
   <time name="diag">    1.04    1.05</time>
   <time name="diis">    3.69    3.70</time>
   <time name="orth">    0.40    0.40</time>
   <time name="total">    6.89    6.91</time>
   <energy>
    <i name="e_fr_energy">  -1121.52519872 </i>
    <i name="e_wo_entrp">  -1121.52519872 </i>
    <i name="e_0_energy">  -1121.52519872 </i>
   </energy>
  </scstep>
  <scstep>
   <time name="diag">    1.04    1.05</time>
   <time name="diis">    3.60    3.61</time>
   <time name="orth">    0.37    0.37</time>
   <time name="total">    6.76    6.78</time>
   <energy>
    <i name="e_fr_energy">  -1121.52523976 </i>
    <i name="e_wo_entrp">  -1121.52523976 </i>
    <i name="e_0_energy">  -1121.52523976 </i>
   </energy>
  </scstep>
  <scstep>
   <time name="diag">    1.04    1.04</time>
   <time name="diis">    3.38    3.39</time>
   <time name="orth">    0.40    0.40</time>
   <time name="total">    6.58    6.59</time>
   <energy>
    <i name="e_fr_energy">  -1121.52522282 </i>
    <i name="e_wo_entrp">  -1121.52522282 </i>
    <i name="e_0_energy">  -1121.52522282 </i>
   </energy>
  </scstep>
  <scstep>
   <time name="diag">    1.03    1.04</time>
   <time name="diis">    2.67    2.68</time>
   <time name="orth">    0.38    0.38</time>
   <time name="total">    4.25    4.27</time>
   <energy>
    <i name="alphaZ">   2992.22201507 </i>
    <i name="ewald"> -42753.64531330 </i>
    <i name="hartreedc"> -20693.43524826 </i>
    <i name="XCdc">   2183.58907968 </i>
    <i name="pawpsdc">  70257.38194438 </i>
    <i name="pawaedc"> -69775.99396324 </i>
    <i name="eentropy">     -0.00000000 </i>
    <i name="bandstr">  -4842.23715970 </i>
    <i name="atom">  61510.59341932 </i>
    <i name="e_fr_energy">  -1121.52522604 </i>
    <i name="e_wo_entrp">  -1121.52522604 </i>
    <i name="e_0_energy">  -1121.52522604 </i>
   </energy>
  </scstep>
  <structure>
   <crystal>
    <varray name="basis" >
     <v>      11.97925516       0.00000000       0.00000000 </v>
     <v>      -5.98962758      10.37433929       0.00000000 </v>
     <v>       0.00000000       0.00000000      14.73693373 </v>
    </varray>
    <i name="volume">   1831.45981186 </i>
    <varray name="rec_basis" >
     <v>       0.08347764       0.04819584       0.00000000 </v>
     <v>       0.00000000       0.09639168       0.00000000 </v>
     <v>       0.00000000      -0.00000000       0.06785672 </v>
    </varray>
   </crystal>
   <varray name="positions" >
    <v>       0.08333334       0.16666667       0.16666667 </v>
    <v>       0.08333335       0.66666670       0.16666667 </v>
    <v>       0.58333334       0.16666667       0.16666667 </v>
    <v>       0.58333333       0.66666670       0.16666667 </v>
    <v>       0.08333333       0.41666669       0.16666667 </v>
    <v>       0.08333338       0.91666675       0.16666667 </v>
    <v>       0.58333330       0.41666669       0.16666667 </v>
    <v>       0.58333336       0.91666675       0.16666667 </v>
    <v>       0.33333334       0.16666667       0.16666667 </v>
    <v>       0.33333335       0.66666670       0.16666667 </v>
    <v>       0.83333334       0.16666667       0.16666667 </v>
    <v>       0.83333335       0.66666670       0.16666667 </v>
    <v>       0.33333332       0.41666669       0.16666667 </v>
    <v>       0.33333336       0.91666675       0.16666667 </v>
    <v>       0.83333326       0.41666669       0.16666667 </v>
    <v>       0.83333329       0.91666675       0.16666667 </v>
    <v>       0.25000000       0.25000000       0.50000000 </v>
    <v>       0.25000001       0.75000002       0.50000000 </v>
    <v>       0.75000000       0.25000000       0.50000000 </v>
    <v>       0.75000001       0.75000002       0.50000000 </v>
    <v>       0.25000000       0.00000000       0.50000000 </v>
    <v>       0.25000000       0.50000001       0.50000000 </v>
    <v>       0.75000000       0.00000000       0.50000000 </v>
    <v>       0.75000000       0.50000001       0.50000000 </v>
    <v>       0.00000000       0.25000000       0.50000000 </v>
    <v>       0.00000001       0.75000002       0.50000000 </v>
    <v>       0.50000000       0.25000000       0.50000000 </v>
    <v>       0.50000001       0.75000002       0.50000000 </v>
    <v>       0.00000000       0.00000000       0.50000000 </v>
    <v>       0.00000000       0.50000001       0.50000000 </v>
    <v>       0.50000000       0.00000000       0.50000000 </v>
    <v>       0.50000000       0.50000001       0.50000000 </v>
    <v>       0.16666667       0.08333334       0.83333331 </v>
    <v>       0.16666668       0.58333333       0.83333331 </v>
    <v>       0.66666667       0.08333334       0.83333331 </v>
    <v>       0.66666671       0.58333333       0.83333331 </v>
    <v>       0.16666667       0.33333335       0.83333331 </v>
    <v>       0.16666667       0.83333338       0.83333331 </v>
    <v>       0.66666667       0.33333335       0.83333331 </v>
    <v>       0.66666669       0.83333338       0.83333331 </v>
    <v>       0.41666667       0.08333334       0.83333331 </v>
    <v>       0.41666669       0.58333333       0.83333331 </v>
    <v>       0.91666671       0.08333334       0.83333331 </v>
    <v>       0.91666675       0.58333333       0.83333331 </v>
    <v>       0.41666667       0.33333335       0.83333331 </v>
    <v>       0.41666669       0.83333338       0.83333331 </v>
    <v>       0.91666676       0.33333335       0.83333331 </v>
    <v>       0.91666673       0.83333338       0.83333331 </v>
    <v>       0.00000000       0.00000000       0.23632954 </v>
    <v>       0.00000000       0.50000001       0.23632954 </v>
    <v>       0.50000000      -0.00000000       0.23632954 </v>
    <v>       0.50000000       0.50000001       0.23632954 </v>
    <v>       0.00000000       0.25000000       0.23632954 </v>
    <v>       0.00000001       0.75000002       0.23632954 </v>
    <v>       0.50000000       0.25000000       0.23632954 </v>
    <v>       0.50000001       0.75000002       0.23632954 </v>
    <v>       0.25000000       0.00000000       0.23632954 </v>
    <v>       0.25000000       0.50000001       0.23632954 </v>
    <v>       0.75000000      -0.00000000       0.23632954 </v>
    <v>       0.75000000       0.50000001       0.23632954 </v>
    <v>       0.25000000       0.25000000       0.23632954 </v>
    <v>       0.25000001       0.75000002       0.23632954 </v>
    <v>       0.75000000       0.25000000       0.23632954 </v>
    <v>       0.75000001       0.75000002       0.23632954 </v>
    <v>       0.16666667       0.08333334       0.09700379 </v>
    <v>       0.16666668       0.58333333       0.09700379 </v>
    <v>       0.66666667       0.08333334       0.09700379 </v>
    <v>       0.66666671       0.58333333       0.09700379 </v>
    <v>       0.16666667       0.33333335       0.09700379 </v>
    <v>       0.16666667       0.83333338       0.09700379 </v>
    <v>       0.66666667       0.33333335       0.09700379 </v>
    <v>       0.66666669       0.83333338       0.09700379 </v>
    <v>       0.41666667       0.08333334       0.09700379 </v>
    <v>       0.41666669       0.58333333       0.09700379 </v>
    <v>       0.91666671       0.08333334       0.09700379 </v>
    <v>       0.91666675       0.58333333       0.09700379 </v>
    <v>       0.41666667       0.33333335       0.09700379 </v>
    <v>       0.41666669       0.83333338       0.09700379 </v>
    <v>       0.91666676       0.33333335       0.09700379 </v>
    <v>       0.91666673       0.83333338       0.09700379 </v>
    <v>       0.16666667       0.08333334       0.56966287 </v>
    <v>       0.16666668       0.58333333       0.56966287 </v>
    <v>       0.66666667       0.08333334       0.56966287 </v>
    <v>       0.66666671       0.58333333       0.56966287 </v>
    <v>       0.16666667       0.33333335       0.56966287 </v>
    <v>       0.16666667       0.83333338       0.56966287 </v>
    <v>       0.66666667       0.33333335       0.56966287 </v>
    <v>       0.66666669       0.83333338       0.56966287 </v>
    <v>       0.41666667       0.08333334       0.56966287 </v>
    <v>       0.41666669       0.58333333       0.56966287 </v>
    <v>       0.91666671       0.08333334       0.56966287 </v>
    <v>       0.91666675       0.58333333       0.56966287 </v>
    <v>       0.41666667       0.33333335       0.56966287 </v>
    <v>       0.41666669       0.83333338       0.56966287 </v>
    <v>       0.91666676       0.33333335       0.56966287 </v>
    <v>       0.91666673       0.83333338       0.56966287 </v>
    <v>       0.08333334       0.16666667       0.43033717 </v>
    <v>       0.08333335       0.66666670       0.43033717 </v>
    <v>       0.58333334       0.16666667       0.43033717 </v>
    <v>       0.58333333       0.66666670       0.43033717 </v>
    <v>       0.08333333       0.41666669       0.43033717 </v>
    <v>       0.08333338       0.91666675       0.43033717 </v>
    <v>       0.58333330       0.41666669       0.43033717 </v>
    <v>       0.58333336       0.91666675       0.43033717 </v>
    <v>       0.33333334       0.16666667       0.43033717 </v>
    <v>       0.33333335       0.66666670       0.43033717 </v>
    <v>       0.83333334       0.16666667       0.43033717 </v>
    <v>       0.83333335       0.66666670       0.43033717 </v>
    <v>       0.33333332       0.41666669       0.43033717 </v>
    <v>       0.33333336       0.91666675       0.43033717 </v>
    <v>       0.83333326       0.41666669       0.43033717 </v>
    <v>       0.83333329       0.91666675       0.43033717 </v>
    <v>       0.08333334       0.16666667       0.90299625 </v>
    <v>       0.08333335       0.66666670       0.90299625 </v>
    <v>       0.58333334       0.16666667       0.90299625 </v>
    <v>       0.58333333       0.66666670       0.90299625 </v>
    <v>       0.08333333       0.41666669       0.90299625 </v>
    <v>       0.08333338       0.91666675       0.90299625 </v>
    <v>       0.58333330       0.41666669       0.90299625 </v>
    <v>       0.58333336       0.91666675       0.90299625 </v>
    <v>       0.33333334       0.16666667       0.90299625 </v>
    <v>       0.33333335       0.66666670       0.90299625 </v>
    <v>       0.83333334       0.16666667       0.90299625 </v>
    <v>       0.83333335       0.66666670       0.90299625 </v>
    <v>       0.33333332       0.41666669       0.90299625 </v>
    <v>       0.33333336       0.91666675       0.90299625 </v>
    <v>       0.83333326       0.41666669       0.90299625 </v>
    <v>       0.83333329       0.91666675       0.90299625 </v>
    <v>      -0.00000000      -0.00000000       0.76367044 </v>
    <v>       0.00000000       0.50000001       0.76367044 </v>
    <v>       0.50000000      -0.00000000       0.76367044 </v>
    <v>       0.50000000       0.50000001       0.76367044 </v>
    <v>       0.00000000       0.25000000       0.76367044 </v>
    <v>       0.00000001       0.75000002       0.76367044 </v>
    <v>       0.50000000       0.25000000       0.76367044 </v>
    <v>       0.50000001       0.75000002       0.76367044 </v>
    <v>       0.25000000      -0.00000000       0.76367044 </v>
    <v>       0.25000000       0.50000001       0.76367044 </v>
    <v>       0.75000000       0.00000000       0.76367044 </v>
    <v>       0.75000000       0.50000001       0.76367044 </v>
    <v>       0.25000000       0.25000000       0.76367044 </v>
    <v>       0.25000001       0.75000002       0.76367044 </v>
    <v>       0.75000000       0.25000000       0.76367044 </v>
    <v>       0.75000001       0.75000002       0.76367044 </v>
   </varray>
  </structure>
  <varray name="forces" >
   <v>      -0.00000000      -0.00000000       0.00000000 </v>
   <v>       0.00000000      -0.00000000       0.00000000 </v>
   <v>       0.00000000      -0.00000000       0.00000000 </v>
   <v>      -0.00000000      -0.00000000       0.00000000 </v>
   <v>      -0.00000000      -0.00000000       0.00000000 </v>
   <v>      -0.00000000      -0.00000000       0.00000000 </v>
   <v>      -0.00000000       0.00000000       0.00000000 </v>
   <v>       0.00000000      -0.00000000       0.00000000 </v>
   <v>      -0.00000000      -0.00000000       0.00000000 </v>
   <v>       0.00000000       0.00000000       0.00000000 </v>
   <v>       0.00000000      -0.00000000       0.00000000 </v>
   <v>       0.00000000      -0.00000000       0.00000000 </v>
   <v>       0.00000000      -0.00000000       0.00000000 </v>
[...]
       <r>    2.6352    0.0000 </r>
       <r>    2.6352    0.0000 </r>
       <r>    2.6352    0.0000 </r>
       <r>    2.6366    0.0000 </r>
       <r>    2.6366    0.0000 </r>
       <r>    2.6366    0.0000 </r>
       <r>    2.7168    0.0000 </r>
       <r>    2.7168    0.0000 </r>
       <r>    2.7168    0.0000 </r>
       <r>    2.7168    0.0000 </r>
       <r>    2.7168    0.0000 </r>
       <r>    2.7168    0.0000 </r>
       <r>    2.7212    0.0000 </r>
       <r>    2.7212    0.0000 </r>
       <r>    2.7212    0.0000 </r>
       <r>    2.7213    0.0000 </r>
       <r>    2.7213    0.0000 </r>
       <r>    2.7213    0.0000 </r>
       <r>    2.7219    0.0000 </r>
       <r>    2.7219    0.0000 </r>
       <r>    2.7219    0.0000 </r>
       <r>    2.7219    0.0000 </r>
       <r>    2.7219    0.0000 </r>
       <r>    2.7219    0.0000 </r>
       <r>    2.7640    0.0000 </r>
       <r>    2.7640    0.0000 </r>
       <r>    2.7640    0.0000 </r>
       <r>    2.7640    0.0000 </r>
       <r>    2.7640    0.0000 </r>
       <r>    2.7640    0.0000 </r>
       <r>    2.7650    0.0000 </r>
       <r>    2.7650    0.0000 </r>
       <r>    2.7650    0.0000 </r>
       <r>    2.7650    0.0000 </r>
       <r>    2.7650    0.0000 </r>
       <r>    2.7650    0.0000 </r>
       <r>    2.7651    0.0000 </r>
       <r>    2.7651    0.0000 </r>
       <r>    2.7651    0.0000 </r>
       <r>    2.7651    0.0000 </r>
       <r>    2.7651    0.0000 </r>
       <r>    2.7651    0.0000 </r>
       <r>    2.9271    0.0000 </r>
       <r>    2.9271    0.0000 </r>
       <r>    2.9271    0.0000 </r>
       <r>    2.9275    0.0000 </r>
       <r>    2.9275    0.0000 </r>
       <r>    2.9275    0.0000 </r>
       <r>    2.9275    0.0000 </r>
       <r>    2.9275    0.0000 </r>
       <r>    2.9275    0.0000 </r>
       <r>    3.0811    0.0000 </r>
       <r>    3.0811    0.0000 </r>
       <r>    3.0811    0.0000 </r>
       <r>    3.0811    0.0000 </r>
       <r>    3.0811    0.0000 </r>
       <r>    3.0811    0.0000 </r>
       <r>    3.0812    0.0000 </r>
       <r>    3.0812    0.0000 </r>
       <r>    3.0812    0.0000 </r>
       <r>    3.0812    0.0000 </r>
       <r>    3.0812    0.0000 </r>
       <r>    3.0812    0.0000 </r>
       <r>    3.1285    0.0000 </r>
       <r>    3.1285    0.0000 </r>
       <r>    3.1285    0.0000 </r>
       <r>    3.1285    0.0000 </r>
       <r>    3.1285    0.0000 </r>
       <r>    3.1285    0.0000 </r>
       <r>    3.2762    0.0000 </r>
       <r>    3.2762    0.0000 </r>
       <r>    3.2762    0.0000 </r>
       <r>    3.2762    0.0000 </r>
       <r>    3.2762    0.0000 </r>
       <r>    3.2762    0.0000 </r>
       <r>    3.2922    0.0000 </r>
       <r>    3.2922    0.0000 </r>
       <r>    3.2922    0.0000 </r>
       <r>    3.2922    0.0000 </r>
       <r>    3.2922    0.0000 </r>
       <r>    3.2922    0.0000 </r>
       <r>    3.3307    0.0000 </r>
       <r>    3.3307    0.0000 </r>
       <r>    3.3307    0.0000 </r>
       <r>    3.3307    0.0000 </r>
       <r>    3.3307    0.0000 </r>
       <r>    3.3307    0.0000 </r>
       <r>    3.4954    0.0000 </r>
       <r>    3.5444    0.0000 </r>
       <r>    3.5445    0.0000 </r>
       <r>    4.1495    0.0000 </r>
       <r>    4.1495    0.0000 </r>
       <r>    4.1495    0.0000 </r>
       <r>    4.1495    0.0000 </r>
       <r>    4.1495    0.0000 </r>
       <r>    4.1495    0.0000 </r>
       <r>    4.3281    0.0000 </r>
       <r>    4.3281    0.0000 </r>
       <r>    4.3281    0.0000 </r>
       <r>    4.3281    0.0000 </r>
       <r>    4.3281    0.0000 </r>
       <r>    4.3281    0.0000 </r>
       <r>    4.3322    0.0000 </r>
       <r>    4.3322    0.0000 </r>
       <r>    4.3322    0.0000 </r>
       <r>    4.3322    0.0000 </r>
       <r>    4.3322    0.0000 </r>
       <r>    4.3322    0.0000 </r>
       <r>    4.4776    0.0000 </r>
       <r>    4.4776    0.0000 </r>
       <r>    4.4776    0.0000 </r>
       <r>    4.4776    0.0000 </r>
       <r>    4.4776    0.0000 </r>
       <r>    4.4776    0.0000 </r>
       <r>    4.4785    0.0000 </r>
       <r>    4.4785    0.0000 </r>
       <r>    4.4785    0.0000 </r>
       <r>    4.4785    0.0000 </r>
       <r>    4.4785    0.0000 </r>
       <r>    4.4785    0.0000 </r>
       <r>    4.4786    0.0000 </r>
       <r>    4.4786    0.0000 </r>
       <r>    4.4786    0.0000 </r>
       <r>    4.4786    0.0000 </r>
       <r>    4.4786    0.0000 </r>
       <r>    4.4786    0.0000 </r>
       <r>    4.5519    0.0000 </r>
       <r>    4.5519    0.0000 </r>
       <r>    4.5519    0.0000 </r>
       <r>    4.5519    0.0000 </r>
       <r>    4.5519    0.0000 </r>
       <r>    4.5519    0.0000 </r>
       <r>    4.5613    0.0000 </r>
       <r>    4.5613    0.0000 </r>
       <r>    4.5613    0.0000 </r>
       <r>    4.5614    0.0000 </r>
       <r>    4.5614    0.0000 </r>
       <r>    4.5614    0.0000 </r>
       <r>    4.5632    0.0000 </r>
       <r>    4.5632    0.0000 </r>
       <r>    4.5632    0.0000 </r>
       <r>    4.5632    0.0000 </r>
       <r>    4.5632    0.0000 </r>
       <r>    4.5632    0.0000 </r>
       <r>    4.5632    0.0000 </r>
       <r>    4.5632    0.0000 </r>
       <r>    4.5632    0.0000 </r>
       <r>    4.5632    0.0000 </r>
       <r>    4.5632    0.0000 </r>
       <r>    4.5632    0.0000 </r>
       <r>    4.6219    0.0000 </r>
       <r>    4.6219    0.0000 </r>
       <r>    4.6219    0.0000 </r>
       <r>    4.8864    0.0000 </r>
       <r>    4.8864    0.0000 </r>
       <r>    4.8864    0.0000 </r>
       <r>    4.8864    0.0000 </r>
       <r>    4.8864    0.0000 </r>
       <r>    4.8864    0.0000 </r>
       <r>    4.9024    0.0000 </r>
       <r>    4.9024    0.0000 </r>
       <r>    4.9024    0.0000 </r>
       <r>    4.9024    0.0000 </r>
       <r>    4.9024    0.0000 </r>
       <r>    4.9024    0.0000 </r>
       <r>    4.9039    0.0000 </r>
       <r>    4.9039    0.0000 </r>
       <r>    4.9039    0.0000 </r>
       <r>    4.9039    0.0000 </r>
       <r>    4.9039    0.0000 </r>
       <r>    4.9039    0.0000 </r>
       <r>    5.0559    0.0000 </r>
       <r>    5.0559    0.0000 </r>
       <r>    5.0559    0.0000 </r>
       <r>    5.0560    0.0000 </r>
       <r>    5.0560    0.0000 </r>
       <r>    5.0560    0.0000 </r>
       <r>    5.0771    0.0000 </r>
       <r>    5.0771    0.0000 </r>
       <r>    5.0771    0.0000 </r>
       <r>    5.1607    0.0000 </r>
       <r>    5.1607    0.0000 </r>
       <r>    5.1674    0.0000 </r>
       <r>    5.1674    0.0000 </r>
       <r>    5.1674    0.0000 </r>
       <r>    5.1674    0.0000 </r>
       <r>    8.1695    0.0000 </r>
       <r>    9.2193    0.0000 </r>
       <r>    9.2194    0.0000 </r>
       <r>   10.1498    0.0000 </r>
       <r>   10.1498    0.0000 </r>
       <r>   10.1498    0.0000 </r>
       <r>   10.1498    0.0000 </r>
       <r>   10.1498    0.0000 </r>
       <r>   10.1498    0.0000 </r>
       <r>   10.5682    0.0000 </r>
       <r>   10.5682    0.0000 </r>
       <r>   10.5682    0.0000 </r>
       <r>   10.5682    0.0000 </r>
       <r>   10.5682    0.0000 </r>
       <r>   10.5682    0.0000 </r>
       <r>   10.9566    0.0000 </r>
       <r>   10.9566    0.0000 </r>
       <r>   10.9566    0.0000 </r>
       <r>   10.9566    0.0000 </r>
       <r>   10.9566    0.0000 </r>
       <r>   10.9566    0.0000 </r>
       <r>   11.2048    0.0000 </r>
       <r>   11.2048    0.0000 </r>
       <r>   11.8282    0.0000 </r>
       <r>   12.4040    0.0000 </r>
       <r>   12.4040    0.0000 </r>
       <r>   12.4040    0.0000 </r>
       <r>   12.7343    0.0000 </r>
       <r>   12.7343    0.0000 </r>
       <r>   12.7343    0.0000 </r>
       <r>   12.7343    0.0000 </r>
       <r>   12.7343    0.0000 </r>
       <r>   12.7343    0.0000 </r>
       <r>   12.7343    0.0000 </r>
       <r>   12.7343    0.0000 </r>
       <r>   12.7343    0.0000 </r>
       <r>   12.7343    0.0000 </r>
       <r>   12.7343    0.0000 </r>
       <r>   12.7343    0.0000 </r>
       <r>   12.7630    0.0000 </r>
       <r>   12.7630    0.0000 </r>
       <r>   12.7630    0.0000 </r>
       <r>   12.7630    0.0000 </r>
       <r>   12.7630    0.0000 </r>
       <r>   12.7630    0.0000 </r>
       <r>   12.8239    0.0000 </r>
       <r>   12.8239    0.0000 </r>
       <r>   12.8239    0.0000 </r>
       <r>   12.8239    0.0000 </r>
       <r>   12.8239    0.0000 </r>
       <r>   12.8239    0.0000 </r>
       <r>   13.0409    0.0000 </r>
       <r>   13.0409    0.0000 </r>
       <r>   13.0409    0.0000 </r>
       <r>   13.0409    0.0000 </r>
       <r>   13.0409    0.0000 </r>
       <r>   13.0409    0.0000 </r>
       <r>   13.1184    0.0000 </r>
       <r>   13.1184    0.0000 </r>
       <r>   13.1184    0.0000 </r>
       <r>   13.1184    0.0000 </r>
       <r>   13.1184    0.0000 </r>
       <r>   13.1184    0.0000 </r>
       <r>   13.4088    0.0000 </r>
       <r>   13.4088    0.0000 </r>
       <r>   13.4088    0.0000 </r>
       <r>   13.6355    0.0000 </r>
       <r>   13.6355    0.0000 </r>
       <r>   13.6355    0.0000 </r>
       <r>   13.6355    0.0000 </r>
       <r>   13.6355    0.0000 </r>
       <r>   13.6355    0.0000 </r>
       <r>   13.9512    0.0000 </r>
       <r>   13.9512    0.0000 </r>
       <r>   13.9513    0.0000 </r>
       <r>   13.9513    0.0000 </r>
       <r>   13.9513    0.0000 </r>
       <r>   13.9513    0.0000 </r>
       <r>   14.0935    0.0000 </r>
       <r>   14.0935    0.0000 </r>
       <r>   14.7240    0.0000 </r>
       <r>   15.1389    0.0000 </r>
       <r>   15.1389    0.0000 </r>
       <r>   15.1389    0.0000 </r>
       <r>   15.1389    0.0000 </r>
       <r>   15.1389    0.0000 </r>
       <r>   15.1389    0.0000 </r>
       <r>   15.1389    0.0000 </r>
       <r>   15.1389    0.0000 </r>
       <r>   15.1389    0.0000 </r>
       <r>   15.1389    0.0000 </r>
       <r>   15.1390    0.0000 </r>
       <r>   15.1391    0.0000 </r>
      </set>
     </set>
    </set>
   </array>
  </eigenvalues>
  <separator name="orbital magnetization" >
   <v name="MAGDIPOLOUT">      0.00000000      0.00000000      0.00000000</v>
  </separator>
 </calculation>
 <structure name="finalpos" >
  <crystal>
   <varray name="basis" >
    <v>      11.55977604      -0.00000000      -0.00000000 </v>
    <v>      -5.77988802      10.01105972       0.00000000 </v>
    <v>      -0.00000000       0.00000000      15.05135730 </v>
   </varray>
   <i name="volume">   1741.82747921 </i>
   <varray name="rec_basis" >
    <v>       0.08650687       0.04994476       0.00000000 </v>
    <v>      -0.00000000       0.09988953      -0.00000000 </v>
    <v>       0.00000000      -0.00000000       0.06643919 </v>
   </varray>
  </crystal>
  <varray name="positions" >
   <v>       0.08333334       0.16666667       0.16666667 </v>
   <v>       0.08333335       0.66666670       0.16666667 </v>
   <v>       0.58333334       0.16666667       0.16666667 </v>
   <v>       0.58333333       0.66666670       0.16666667 </v>
   <v>       0.08333333       0.41666669       0.16666667 </v>
   <v>       0.08333338       0.91666675       0.16666667 </v>
   <v>       0.58333330       0.41666669       0.16666667 </v>
   <v>       0.58333336       0.91666675       0.16666667 </v>
   <v>       0.33333334       0.16666667       0.16666667 </v>
   <v>       0.33333335       0.66666670       0.16666667 </v>
   <v>       0.83333334       0.16666667       0.16666667 </v>
   <v>       0.83333335       0.66666670       0.16666667 </v>
   <v>       0.33333332       0.41666669       0.16666667 </v>
   <v>       0.33333336       0.91666675       0.16666667 </v>
   <v>       0.83333326       0.41666669       0.16666667 </v>
   <v>       0.83333329       0.91666675       0.16666667 </v>
   <v>       0.25000000       0.25000000       0.50000000 </v>
   <v>       0.25000001       0.75000002       0.50000000 </v>
   <v>       0.75000000       0.25000000       0.50000000 </v>
   <v>       0.75000001       0.75000002       0.50000000 </v>
   <v>       0.25000000      -0.00000000       0.50000000 </v>
   <v>       0.25000000       0.50000001       0.50000000 </v>
   <v>       0.75000000      -0.00000000       0.50000000 </v>
   <v>       0.75000000       0.50000001       0.50000000 </v>
   <v>       0.00000000       0.25000000       0.50000000 </v>
   <v>       0.00000001       0.75000002       0.50000000 </v>
   <v>       0.50000000       0.25000000       0.50000000 </v>
   <v>       0.50000001       0.75000002       0.50000000 </v>
   <v>       0.00000000      -0.00000000       0.50000000 </v>
   <v>       0.00000000       0.50000001       0.50000000 </v>
   <v>       0.50000000       0.00000000       0.50000000 </v>
   <v>       0.50000000       0.50000001       0.50000000 </v>
   <v>       0.16666667       0.08333334       0.83333331 </v>
   <v>       0.16666668       0.58333333       0.83333331 </v>
   <v>       0.66666667       0.08333334       0.83333331 </v>
   <v>       0.66666671       0.58333333       0.83333331 </v>
   <v>       0.16666667       0.33333335       0.83333331 </v>
   <v>       0.16666667       0.83333338       0.83333331 </v>
   <v>       0.66666667       0.33333335       0.83333331 </v>
   <v>       0.66666669       0.83333338       0.83333331 </v>
   <v>       0.41666667       0.08333334       0.83333331 </v>
   <v>       0.41666669       0.58333333       0.83333331 </v>
   <v>       0.91666671       0.08333334       0.83333331 </v>
   <v>       0.91666675       0.58333333       0.83333331 </v>
   <v>       0.41666667       0.33333335       0.83333331 </v>
   <v>       0.41666669       0.83333338       0.83333331 </v>
   <v>       0.91666676       0.33333335       0.83333331 </v>
   <v>       0.91666673       0.83333338       0.83333331 </v>
   <v>       0.00000000      -0.00000000       0.23007116 </v>
   <v>       0.00000000       0.50000001       0.23007116 </v>
   <v>       0.50000000      -0.00000000       0.23007116 </v>
   <v>       0.50000000       0.50000001       0.23007116 </v>
   <v>       0.00000000       0.25000000       0.23007116 </v>
   <v>       0.00000001       0.75000002       0.23007116 </v>
   <v>       0.50000000       0.25000000       0.23007116 </v>
   <v>       0.50000001       0.75000002       0.23007116 </v>
   <v>       0.25000000      -0.00000000       0.23007116 </v>
   <v>       0.25000000       0.50000001       0.23007116 </v>
   <v>       0.75000000      -0.00000000       0.23007116 </v>
   <v>       0.75000000       0.50000001       0.23007116 </v>
   <v>       0.25000000       0.25000000       0.23007116 </v>
   <v>       0.25000001       0.75000002       0.23007116 </v>
   <v>       0.75000000       0.25000000       0.23007116 </v>
   <v>       0.75000001       0.75000002       0.23007116 </v>
   <v>       0.16666667       0.08333334       0.10326217 </v>
   <v>       0.16666668       0.58333333       0.10326217 </v>
   <v>       0.66666667       0.08333334       0.10326217 </v>
   <v>       0.66666671       0.58333333       0.10326217 </v>
   <v>       0.16666667       0.33333335       0.10326217 </v>
   <v>       0.16666667       0.83333338       0.10326217 </v>
   <v>       0.66666667       0.33333335       0.10326217 </v>
   <v>       0.66666669       0.83333338       0.10326217 </v>
   <v>       0.41666667       0.08333334       0.10326217 </v>
   <v>       0.41666669       0.58333333       0.10326217 </v>
   <v>       0.91666671       0.08333334       0.10326217 </v>
   <v>       0.91666675       0.58333333       0.10326217 </v>
   <v>       0.41666667       0.33333335       0.10326217 </v>
   <v>       0.41666669       0.83333338       0.10326217 </v>
   <v>       0.91666676       0.33333335       0.10326217 </v>
   <v>       0.91666673       0.83333338       0.10326217 </v>
   <v>       0.16666667       0.08333334       0.56340449 </v>
   <v>       0.16666668       0.58333333       0.56340449 </v>
   <v>       0.66666667       0.08333334       0.56340449 </v>
   <v>       0.66666671       0.58333333       0.56340449 </v>
   <v>       0.16666667       0.33333335       0.56340449 </v>
   <v>       0.16666667       0.83333338       0.56340449 </v>
   <v>       0.66666667       0.33333335       0.56340449 </v>
   <v>       0.66666669       0.83333338       0.56340449 </v>
   <v>       0.41666667       0.08333334       0.56340449 </v>
   <v>       0.41666669       0.58333333       0.56340449 </v>
   <v>       0.91666671       0.08333334       0.56340449 </v>
   <v>       0.91666675       0.58333333       0.56340449 </v>
   <v>       0.41666667       0.33333335       0.56340449 </v>
   <v>       0.41666669       0.83333338       0.56340449 </v>
   <v>       0.91666676       0.33333335       0.56340449 </v>
   <v>       0.91666673       0.83333338       0.56340449 </v>
   <v>       0.08333334       0.16666667       0.43659555 </v>
   <v>       0.08333335       0.66666670       0.43659555 </v>
   <v>       0.58333334       0.16666667       0.43659555 </v>
   <v>       0.58333333       0.66666670       0.43659555 </v>
   <v>       0.08333333       0.41666669       0.43659555 </v>
   <v>       0.08333338       0.91666675       0.43659555 </v>
   <v>       0.58333330       0.41666669       0.43659555 </v>
   <v>       0.58333336       0.91666675       0.43659555 </v>
   <v>       0.33333334       0.16666667       0.43659555 </v>
   <v>       0.33333335       0.66666670       0.43659555 </v>
   <v>       0.83333334       0.16666667       0.43659555 </v>
   <v>       0.83333335       0.66666670       0.43659555 </v>
   <v>       0.33333332       0.41666669       0.43659555 </v>
   <v>       0.33333336       0.91666675       0.43659555 </v>
   <v>       0.83333326       0.41666669       0.43659555 </v>
   <v>       0.83333329       0.91666675       0.43659555 </v>
   <v>       0.08333334       0.16666667       0.89673787 </v>
   <v>       0.08333335       0.66666670       0.89673787 </v>
   <v>       0.58333334       0.16666667       0.89673787 </v>
   <v>       0.58333333       0.66666670       0.89673787 </v>
   <v>       0.08333333       0.41666669       0.89673787 </v>
   <v>       0.08333338       0.91666675       0.89673787 </v>
   <v>       0.58333330       0.41666669       0.89673787 </v>
   <v>       0.58333336       0.91666675       0.89673787 </v>
   <v>       0.33333334       0.16666667       0.89673787 </v>
   <v>       0.33333335       0.66666670       0.89673787 </v>
   <v>       0.83333334       0.16666667       0.89673787 </v>
   <v>       0.83333335       0.66666670       0.89673787 </v>
   <v>       0.33333332       0.41666669       0.89673787 </v>
   <v>       0.33333336       0.91666675       0.89673787 </v>
   <v>       0.83333326       0.41666669       0.89673787 </v>
   <v>       0.83333329       0.91666675       0.89673787 </v>
   <v>      -0.00000000       0.00000000       0.76992882 </v>
   <v>       0.00000000       0.50000001       0.76992882 </v>
   <v>       0.50000000       0.00000000       0.76992882 </v>
   <v>       0.50000000       0.50000001       0.76992882 </v>
   <v>       0.00000000       0.25000000       0.76992882 </v>
   <v>       0.00000001       0.75000002       0.76992882 </v>
   <v>       0.50000000       0.25000000       0.76992882 </v>
   <v>       0.50000001       0.75000002       0.76992882 </v>
   <v>       0.25000000      -0.00000000       0.76992882 </v>
   <v>       0.25000000       0.50000001       0.76992882 </v>
   <v>       0.75000000       0.00000000       0.76992882 </v>
   <v>       0.75000000       0.50000001       0.76992882 </v>
   <v>       0.25000000       0.25000000       0.76992882 </v>
   <v>       0.25000001       0.75000002       0.76992882 </v>
   <v>       0.75000000       0.25000000       0.76992882 </v>
   <v>       0.75000001       0.75000002       0.76992882 </v>
  </varray>
 </structure>
</modeling>
